 STEP 5
GAUSSIAN             16 MOL ORBITALS     75 PRIMITIVES        9 NUCLEI
  C    1    (CENTRE  1)   8.93936644  2.43497447  0.87680080  CHARGE =  6.0
  C    2    (CENTRE  2)   7.36056073  0.06262741  0.97741737  CHARGE =  6.0
  O    3    (CENTRE  3)   5.24024834 -0.02219294 -0.04117146  CHARGE =  8.0
  N    4    (CENTRE  4)   8.33270955 -1.88335775  2.22964250  CHARGE =  7.0
  H    5    (CENTRE  5)   7.37283073 -3.29126796  2.58240901  CHARGE =  1.0
  H    6    (CENTRE  6)   9.87025498 -1.86191691  2.89911955  CHARGE =  1.0
  H    7    (CENTRE  7)   8.51295919  3.38530451  2.36314787  CHARGE =  1.0
  H    8    (CENTRE  8)  10.67377408  1.97476002  0.82831987  CHARGE =  1.0
  H    9    (CENTRE  9)   8.40437553  3.61099072 -0.47750167  CHARGE =  1.0
CENTRE ASSIGNMENTS    1  1  1  1  1  1  1  1  1  1  1  1  1  1  1  2  2  2  2  2
CENTRE ASSIGNMENTS    2  2  2  2  2  2  2  2  2  2  3  3  3  3  3  3  3  3  3  3
CENTRE ASSIGNMENTS    3  3  3  3  3  4  4  4  4  4  4  4  4  4  4  4  4  4  4  4
CENTRE ASSIGNMENTS    5  5  5  6  6  6  7  7  7  8  8  8  9  9  9
TYPE ASSIGNMENTS      1  1  1  1  1  2  2  3  3  4  4  1  2  3  4  1  1  1  1  1
TYPE ASSIGNMENTS      2  2  3  3  4  4  1  2  3  4  1  1  1  1  1  2  2  3  3  4
TYPE ASSIGNMENTS      4  1  2  3  4  1  1  1  1  1  2  2  3  3  4  4  1  2  3  4
TYPE ASSIGNMENTS      1  1  1  1  1  1  1  1  1  1  1  1  1  1  1
EXPONENTS  0.1722560D+03 0.2591090D+02 0.5533350D+01 0.3664980D+01 0.7705450D+00
EXPONENTS  0.3664980D+01 0.7705450D+00 0.3664980D+01 0.7705450D+00 0.3664980D+01
EXPONENTS  0.7705450D+00 0.1958570D+00 0.1958570D+00 0.1958570D+00 0.1958570D+00
EXPONENTS  0.1722560D+03 0.2591090D+02 0.5533350D+01 0.3664980D+01 0.7705450D+00
EXPONENTS  0.3664980D+01 0.7705450D+00 0.3664980D+01 0.7705450D+00 0.3664980D+01
EXPONENTS  0.7705450D+00 0.1958570D+00 0.1958570D+00 0.1958570D+00 0.1958570D+00
EXPONENTS  0.3220370D+03 0.4843080D+02 0.1042060D+02 0.7402940D+01 0.1576200D+01
EXPONENTS  0.7402940D+01 0.1576200D+01 0.7402940D+01 0.1576200D+01 0.7402940D+01
EXPONENTS  0.1576200D+01 0.3736840D+00 0.3736840D+00 0.3736840D+00 0.3736840D+00
EXPONENTS  0.2427660D+03 0.3648510D+02 0.7814490D+01 0.5425220D+01 0.1149150D+01
EXPONENTS  0.5425220D+01 0.1149150D+01 0.5425220D+01 0.1149150D+01 0.5425220D+01
EXPONENTS  0.1149150D+01 0.2832050D+00 0.2832050D+00 0.2832050D+00 0.2832050D+00
EXPONENTS  0.5447178D+01 0.8245472D+00 0.1831916D+00 0.5447178D+01 0.8245472D+00
EXPONENTS  0.1831916D+00 0.5447178D+01 0.8245472D+00 0.1831916D+00 0.5447178D+01
EXPONENTS  0.8245472D+00 0.1831916D+00 0.5447178D+01 0.8245472D+00 0.1831916D+00
MO    1     MO 0.0        OCC NO =    2.0000000  ORB. ENERGY =  -20.570757
 -0.10157262D-03 -0.14251058D-03 -0.87432189D-04  0.24898816D-03 -0.23742023D-03
 -0.97947909D-04 -0.50752380D-04 -0.91022225D-04 -0.47163789D-04 -0.23019207D-03
 -0.11927560D-03  0.14847455D-02  0.81068543D-03 -0.13848118D-02  0.92654046D-03
  0.24615156D-03  0.34536082D-03  0.21188358D-03 -0.11177247D-02  0.10657955D-02
 -0.26872520D-02 -0.13924180D-02  0.31106111D-03  0.16117844D-03 -0.14787524D-02
 -0.76622569D-03  0.31447475D-02 -0.52345466D-02 -0.75031555D-03 -0.22616733D-02
  0.31575703D+01  0.45245940D+01  0.28777696D+01 -0.12997883D+00  0.12304803D+00
  0.17316136D-01  0.87440621D-02  0.32825512D-04  0.16575772D-04  0.87574862D-02
  0.44222340D-02 -0.19848548D-01 -0.60798663D-02  0.15210267D-04 -0.30362933D-02
 -0.13372396D-03 -0.19030327D-03 -0.11993223D-03  0.39103232D-03 -0.36169803D-03
 -0.20573973D-02 -0.10671142D-02 -0.20741851D-02 -0.10758216D-02  0.80968572D-04
  0.41996126D-04  0.10658346D-02  0.26169651D-02  0.19176908D-02  0.32961015D-03
  0.99470636D-03  0.13973682D-02  0.35639666D-03 -0.10816947D-02 -0.15195698D-02
 -0.29722853D-03  0.23461667D-04  0.32959061D-04 -0.14404102D-03 -0.46965474D-03
 -0.65977320D-03 -0.49839287D-03  0.34588514D-03  0.48590108D-03  0.71222792D-03
MO    2     MO 0.0        OCC NO =    2.0000000  ORB. ENERGY =  -15.632395
 -0.32179772D-03 -0.45149551D-03 -0.27699866D-03  0.88355840D-03 -0.84250847D-03
  0.52636925D-03  0.27274183D-03  0.66047295D-03  0.34222858D-03 -0.34659288D-03
 -0.17958947D-03  0.10363049D-02 -0.10240748D-02  0.32843023D-03 -0.33926838D-03
 -0.25228689D-03 -0.35396894D-03 -0.21716478D-03  0.91626686D-03 -0.87369730D-03
  0.52691263D-04  0.27302339D-04 -0.45691162D-03 -0.23675188D-03  0.24713058D-03
  0.12805240D-03  0.44409176D-02  0.14068850D-02 -0.35320350D-02  0.20576386D-02
  0.52248275D-04  0.74868398D-04  0.47618416D-04  0.31052683D-03 -0.29396876D-03
 -0.10240786D-02 -0.51712501D-03 -0.25630104D-02 -0.12942335D-02  0.58106973D-03
  0.29342054D-03  0.31630709D-03  0.92359678D-04  0.17512924D-02 -0.65860096D-03
  0.25868903D+01  0.36814173D+01  0.23200893D+01 -0.10754046D+00  0.99473041D-01
 -0.17028972D-02 -0.88324498D-03  0.30254577D-02  0.15692200D-02 -0.11570064D-02
 -0.60010676D-03 -0.19293961D-01  0.15679578D-02 -0.25358364D-02  0.16317596D-02
  0.41323158D-03  0.58050967D-03  0.15062287D-02 -0.10979586D-04 -0.15424174D-04
  0.16983947D-02 -0.83718877D-04 -0.11760867D-03 -0.34652227D-03  0.17158062D-03
  0.24103727D-03  0.26546667D-03 -0.45469221D-03 -0.63875376D-03 -0.20771698D-03
MO    3     MO 0.0        OCC NO =    2.0000000  ORB. ENERGY =  -11.462407
 -0.20269090D-02 -0.28438372D-02 -0.17447330D-02  0.17750538D-02 -0.16925851D-02
  0.40357176D-03  0.20911347D-03  0.82089009D-03  0.42534982D-03  0.45149584D-03
  0.23394566D-03  0.49059580D-02 -0.13064235D-02 -0.28905190D-02  0.93283346D-04
  0.20653493D+01  0.28977705D+01  0.17778218D+01 -0.71112204D-01  0.67808347D-01
 -0.16005528D-03 -0.82933739D-04  0.10714107D-02  0.55515880D-03 -0.26404872D-03
 -0.13681865D-03 -0.10972008D-01 -0.34830910D-02 -0.28706539D-02 -0.62483904D-03
  0.68091352D-03  0.97570502D-03  0.62057595D-03 -0.25263689D-02  0.23916566D-02
 -0.10681903D-02 -0.53939991D-03 -0.19886160D-02 -0.10041838D-02  0.22039747D-03
  0.11129326D-03 -0.18888942D-02 -0.18117159D-02  0.11646615D-02 -0.13438503D-02
  0.10020490D-03  0.14260212D-03  0.89870185D-04  0.36290686D-03 -0.33568247D-03
 -0.98312304D-03 -0.50991833D-03 -0.35752620D-02 -0.18543881D-02  0.10930300D-02
  0.56692400D-03  0.17476926D-02  0.21650290D-02  0.15747427D-02  0.31495117D-03
  0.48918560D-03  0.68721023D-03  0.54846584D-03 -0.10999247D-02 -0.15451794D-02
 -0.22882004D-03 -0.66862028D-03 -0.93928091D-03  0.81687769D-03 -0.70588509D-03
 -0.99163070D-03  0.23494323D-03 -0.44725551D-03 -0.62830664D-03  0.45955606D-03
MO    4     MO 0.0        OCC NO =    2.0000000  ORB. ENERGY =  -11.285842
  0.20665212D+01  0.28994147D+01  0.17788305D+01 -0.77864663D-01  0.74247087D-01
 -0.20456176D-03 -0.10599508D-03  0.56671898D-03  0.29364932D-03  0.10170708D-02
  0.52700221D-03 -0.19568237D-01  0.95455712D-03  0.28231359D-03 -0.30517978D-03
  0.83354107D-03  0.11694926D-02  0.71749968D-03  0.11849504D-02 -0.11298978D-02
 -0.50599874D-04 -0.26218671D-04  0.52433254D-04  0.27168649D-04  0.15073252D-03
  0.78103085D-04  0.37484535D-02  0.82330155D-03  0.25324414D-02 -0.54875594D-03
  0.11074229D-03  0.15868654D-03  0.10092912D-03  0.14031610D-04 -0.13283410D-04
 -0.84588440D-03 -0.42714298D-03  0.24755696D-03  0.12500788D-03 -0.59429621D-03
 -0.30009946D-03 -0.52294612D-03 -0.26596146D-03 -0.70303396D-03  0.16414538D-03
 -0.18604039D-03 -0.26475507D-03 -0.16685296D-03  0.10685579D-02 -0.98839725D-03
  0.75119981D-04  0.38962626D-04 -0.21441397D-02 -0.11121051D-02  0.69184744D-03
  0.35884185D-03  0.84380807D-03 -0.31512782D-03  0.70425021D-03 -0.39809908D-03
 -0.51619035D-05 -0.72514663D-05  0.36394551D-03 -0.60283430D-04 -0.84686446D-04
  0.54975725D-04 -0.34920312D-03 -0.49056219D-03  0.39740665D-02 -0.69159031D-03
 -0.97154933D-03  0.35467672D-02 -0.20927458D-03 -0.29398991D-03  0.35273071D-02
MO    5     MO 0.0        OCC NO =    2.0000000  ORB. ENERGY =   -1.541449
 -0.49965968D-01 -0.70104319D-01 -0.43009957D-01 -0.18760761D-01  0.17889140D-01
 -0.26258715D-01 -0.13606133D-01 -0.31607521D-01 -0.16377653D-01  0.80188411D-03
  0.41550174D-03  0.30377643D-02 -0.12685690D-02  0.53965435D-02 -0.17380540D-02
 -0.27900141D+00 -0.39145052D+00 -0.24016024D+00 -0.11250184D+00  0.10727503D+00
 -0.17549235D+00 -0.90932561D-01 -0.55561451D-01 -0.28789546D-01 -0.61345428D-01
 -0.31786554D-01  0.30725819D-01  0.11984667D-01  0.70574534D-02  0.35972386D-02
 -0.61589476D+00 -0.88253734D+00 -0.56131867D+00 -0.22474509D+00  0.21276112D+00
  0.41165044D+00  0.20786953D+00  0.26808026D-02  0.13537146D-02  0.20653062D+00
  0.10429097D+00  0.21001404D+00  0.44687516D-01 -0.32184836D-02  0.24182549D-01
 -0.19457881D+00 -0.27690613D+00 -0.17451076D+00 -0.71502990D-01  0.66139009D-01
 -0.57394800D-01 -0.29769072D-01  0.75379811D-01  0.39097393D-01 -0.50537152D-01
 -0.26212203D-01  0.54092585D-01 -0.13617261D-01  0.21476940D-02 -0.63253609D-02
  0.10482509D-01  0.14725879D-01 -0.98692466D-03  0.14850444D-01  0.20861974D-01
  0.14737141D-03  0.40227308D-02  0.56511512D-02 -0.17325916D-02  0.46908037D-02
  0.65896632D-02  0.34615773D-04  0.30403472D-02  0.42710941D-02 -0.27495979D-02
MO    6     MO 0.0        OCC NO =    2.0000000  ORB. ENERGY =   -1.394127
 -0.36911643D-01 -0.51788561D-01 -0.31772990D-01 -0.14875199D-01  0.14184100D-01
  0.52184779D-02  0.27039901D-02 -0.27959397D-01 -0.14487353D-01  0.14340643D-01
  0.74307025D-02  0.63113602D-02  0.45598911D-02 -0.22373681D-02  0.30117403D-02
 -0.76515305D-01 -0.10735414D+00 -0.65863230D-01 -0.34391902D-01  0.32794062D-01
  0.21267326D+00  0.11019811D+00 -0.13837064D+00 -0.71697692D-01  0.16255274D+00
  0.84227815D-01  0.50021442D-02 -0.12387384D-02  0.65436732D-02 -0.32268749D-02
  0.32533544D+00  0.46618464D+00  0.29650660D+00  0.12139124D+00 -0.11491836D+00
 -0.13532659D+00 -0.68335344D-01 -0.51699905D-01 -0.26106701D-01 -0.46638923D-01
 -0.23551077D-01 -0.11451984D+00 -0.15686086D-01 -0.76483391D-02 -0.49833840D-02
 -0.53136378D+00 -0.75618660D+00 -0.47656113D+00 -0.19262100D+00  0.17817104D+00
  0.14425150D-01  0.74819205D-02  0.61224038D-01  0.31755190D-01  0.77760592D-02
  0.40332237D-02  0.17389432D+00 -0.45311197D-02  0.13964616D-01 -0.45015424D-02
  0.41693406D-01  0.58571093D-01  0.80457228D-03  0.47723012D-01  0.67041511D-01
  0.17021513D-03  0.37740645D-02  0.53018236D-02 -0.29788358D-03  0.46461524D-02
  0.65269368D-02 -0.14800086D-02  0.27422778D-02  0.38523648D-02  0.53407618D-03
MO    7     MO 0.0        OCC NO =    2.0000000  ORB. ENERGY =   -1.197153
 -0.42171657D+00 -0.59168579D+00 -0.36300731D+00 -0.14506705D+00  0.13832727D+00
 -0.13788717D-01 -0.71447181D-02 -0.12565155D-01 -0.65107210D-02  0.33032771D-01
  0.17116156D-01  0.11893108D+00 -0.35535597D-02  0.23267525D-02  0.28845572D-02
 -0.11375586D+00 -0.15960417D+00 -0.97919340D-01 -0.48907108D-01  0.46634894D-01
  0.15285685D+00  0.79203822D-01  0.19290244D+00  0.99953718D-01  0.64088733D-02
  0.33208016D-02  0.22099006D-01  0.94399891D-02  0.40508360D-02  0.34168151D-02
  0.12307695D+00  0.17636131D+00  0.11217077D+00  0.48856864D-01 -0.46251695D-01
  0.28617583D-01  0.14450911D-01  0.11488896D+00  0.58015033D-01 -0.25424251D-01
 -0.12838386D-01 -0.41842974D-01  0.24200394D-02  0.86526932D-02 -0.20028268D-02
  0.12425522D+00  0.17682826D+00  0.11144006D+00  0.42781539D-01 -0.39572172D-01
  0.37861101D-01  0.19637491D-01  0.15484907D+00  0.80315869D-01 -0.53055111D-01
 -0.27518197D-01 -0.47665224D-01  0.33070697D-02  0.57069573D-02 -0.21278369D-02
 -0.22367832D-01 -0.31422436D-01 -0.30570672D-02 -0.10765349D-01 -0.15123213D-01
 -0.10300668D-02  0.52662699D-01  0.73980808D-01 -0.28237906D-02  0.50865148D-01
  0.71455599D-01 -0.21577083D-03  0.44223042D-01  0.62124738D-01 -0.33027884D-02
MO    8     MO 0.0        OCC NO =    2.0000000  ORB. ENERGY =   -0.983297
  0.11260487D+00  0.15798929D+00  0.96928585D-01  0.33902362D-01 -0.32327266D-01
 -0.49164230D-01 -0.25474782D-01 -0.18417123D+00 -0.95429583D-01  0.19118109D-01
  0.99061792D-02 -0.45864098D-01  0.27737242D-02 -0.44742114D-02 -0.85112563D-03
 -0.26455658D+00 -0.37118382D+00 -0.22772634D+00 -0.11648469D+00  0.11107283D+00
  0.14560567D+00  0.75446577D-01 -0.20514025D+00 -0.10629483D+00  0.14788623D+00
  0.76628261D-01  0.65714622D-01  0.15705583D-01  0.42298834D-02  0.73316873D-02
  0.19647052D+00  0.28152955D+00  0.17906074D+00  0.75884780D-01 -0.71838415D-01
  0.27057211D+00  0.13662975D+00 -0.14702904D+00 -0.74244685D-01  0.18296992D+00
  0.92393616D-01 -0.76789941D-01  0.26005315D-01 -0.16622244D-01  0.17642302D-01
  0.10501680D+00  0.14944996D+00  0.94185804D-01  0.38918298D-01 -0.35998742D-01
 -0.36437035D+00 -0.18898868D+00  0.69858581D+00  0.36233685D+00 -0.49381302D+00
 -0.25612696D+00 -0.41084265D-01 -0.35860028D-01  0.56363686D-01 -0.44643963D-01
 -0.50868957D-01 -0.71460950D-01 -0.96605378D-02 -0.54517963D-01 -0.76587092D-01
 -0.74769136D-02 -0.23743667D-01 -0.33355215D-01 -0.43368840D-02 -0.15997731D-01
 -0.22473688D-01 -0.49587925D-02 -0.27991940D-01 -0.39323209D-01 -0.67160483D-02
MO    9     MO 0.0        OCC NO =    2.0000000  ORB. ENERGY =   -0.911358
  0.69692996D-01  0.97782156D-01  0.59990688D-01  0.21089899D-01 -0.20110067D-01
 -0.26699305D-01 -0.13834428D-01 -0.18633739D+00 -0.96551997D-01  0.25419009D-02
  0.13171034D-02 -0.30147331D-01  0.59403623D-03 -0.12561959D-01  0.21876325D-02
 -0.20412013D-01 -0.28638899D-01 -0.17570355D-01 -0.39585652D-02  0.37746511D-02
  0.15076676D+00  0.78120827D-01  0.17201758D+00  0.89132087D-01 -0.24516343D-01
 -0.12703311D-01  0.11759466D-01  0.96456006D-02  0.13605535D-01 -0.30322078D-02
 -0.89050687D-01 -0.12760387D+00 -0.81159668D-01 -0.28888272D-01  0.27347878D-01
 -0.12232868D+00 -0.61771840D-01  0.25790509D+00  0.13023334D+00 -0.20242195D+00
 -0.10221623D+00  0.40075708D-01 -0.92245793D-02  0.23441840D-01 -0.17423592D-01
  0.47165236D-02  0.67121096D-02  0.42300810D-02  0.22638749D-02 -0.20940445D-02
  0.95852094D+00  0.49715791D+00  0.44470935D+00  0.23065826D+00  0.16777058D+00
  0.87017894D-01 -0.51617415D-03  0.90545957D-01  0.43420032D-01  0.14980610D-01
 -0.75587654D-01 -0.10618589D+00 -0.13389434D-01  0.82767215D-01  0.11627177D+00
  0.12145733D-01 -0.23208873D-01 -0.32603935D-01 -0.53145154D-02 -0.66904216D-02
 -0.93987357D-02  0.93283632D-03 -0.23928535D-01 -0.33614919D-01 -0.20142681D-02
MO   10     MO 0.0        OCC NO =    2.0000000  ORB. ENERGY =   -0.832470
 -0.49129885D-01 -0.68931260D-01 -0.42290269D-01 -0.14111700D-01  0.13456073D-01
  0.43489860D+00  0.22534569D+00  0.60858725D-01  0.31534365D-01  0.37977477D-01
  0.19678290D-01  0.28217595D-01  0.31470854D-01 -0.67109272D-02  0.64530121D-02
  0.14535961D+00  0.20394554D+00  0.12512337D+00  0.63539052D-01 -0.60587042D-01
  0.16189885D+00  0.83888995D-01 -0.36603521D+00 -0.18966365D+00  0.14434719D+00
  0.74794485D-01 -0.48284620D-01 -0.11490069D-01 -0.32779514D-01 -0.47084537D-03
 -0.22670680D+00 -0.32485618D+00 -0.20661771D+00 -0.83494087D-01  0.79041975D-01
 -0.79472652D+00 -0.40130998D+00 -0.65977444D+00 -0.33316375D+00 -0.26355342D+00
 -0.13308556D+00  0.95119485D-01 -0.80491488D-01 -0.61143824D-01 -0.28656622D-01
 -0.87159824D-02 -0.12403761D-01 -0.78170523D-02 -0.54642787D-02  0.50543618D-02
 -0.65887842D-02 -0.34174175D-02  0.29965264D+00  0.15542141D+00 -0.24033306D+00
 -0.12465401D+00  0.31392525D-02  0.84313346D-02  0.36084487D-01 -0.23103497D-01
 -0.23856930D-01 -0.33514328D-01 -0.30464281D-02 -0.76703616D-02 -0.10775360D-01
 -0.21514025D-02  0.20277203D-02  0.28485510D-02  0.13883081D-02  0.70082449D-01
  0.98452155D-01  0.20360840D-01 -0.82774295D-02 -0.11628172D-01  0.14289572D-02
MO   11     MO 0.0        OCC NO =    2.0000000  ORB. ENERGY =   -0.796874
  0.15667401D-01  0.21982011D-01  0.13486264D-01  0.75413490D-02 -0.71909796D-02
 -0.26471155D+00 -0.13716210D+00  0.28183469D+00  0.14603457D+00  0.37873687D+00
  0.19624510D+00 -0.11138363D-02 -0.21532843D-01  0.18040663D-01  0.29137158D-01
  0.45948806D-01  0.64468075D-01  0.39552045D-01  0.22071180D-01 -0.21045758D-01
 -0.35627316D-01 -0.18460538D-01 -0.46927873D-01 -0.24315999D-01  0.32994964D+00
  0.17096567D+00 -0.13958806D-01 -0.15986099D-01 -0.32297632D-02  0.24772689D-01
 -0.81932887D-01 -0.11740453D+00 -0.74672595D-01 -0.31167732D-01  0.29505791D-01
 -0.60783786D+00 -0.30693754D+00 -0.40855752D-01 -0.20630771D-01  0.34272627D+00
  0.17306516D+00  0.33322397D-01 -0.63443710D-01 -0.21727415D-02  0.32759777D-01
 -0.10583884D-01 -0.15061981D-01 -0.94923060D-02 -0.41971548D-02  0.38822944D-02
 -0.42328043D-01 -0.21954368D-01  0.37237633D+00  0.19314115D+00  0.19271429D+00
  0.99955496D-01  0.48021914D-02 -0.10597976D-02  0.40297390D-01  0.22569164D-01
 -0.21798528D-01 -0.30622675D-01 -0.46572613D-02  0.45616260D-02  0.64081937D-02
  0.16284755D-03  0.82224783D-01  0.11550976D+00  0.31223058D-01 -0.58609558D-01
 -0.82334984D-01 -0.18736162D-01 -0.91986543D-02 -0.12922313D-01 -0.28147218D-02
MO   12     MO 0.0        OCC NO =    2.0000000  ORB. ENERGY =   -0.753157
 -0.71030451D-02 -0.99658659D-02 -0.61141949D-02 -0.10577381D-02  0.10085958D-02
 -0.20697146D+00 -0.10724368D+00  0.43889104D+00  0.22741440D+00 -0.32181354D+00
 -0.16674989D+00  0.11440879D-01 -0.22999999D-01  0.37814180D-01 -0.28595845D-01
  0.23158487D-01  0.32492315D-01  0.19934479D-01  0.20355115D-02 -0.19409421D-02
 -0.64165945D-01 -0.33248024D-01 -0.31020920D+00 -0.16073702D+00 -0.11321636D+00
 -0.58663830D-01 -0.18417220D-01 -0.15771778D-02 -0.27420230D-01 -0.12235884D-01
  0.39067531D-01  0.55981244D-01  0.35605653D-01  0.12941621D-01 -0.12251541D-01
  0.31443198D+00  0.15877750D+00 -0.45557770D+00 -0.23005131D+00 -0.12341091D+00
 -0.62318329D-01 -0.17813553D-01  0.33974197D-01 -0.43567094D-01 -0.14027219D-01
 -0.37826153D-01 -0.53830598D-01 -0.33924921D-01 -0.14362298D-01  0.13284873D-01
  0.30985901D+00  0.16071517D+00  0.24775138D+00  0.12850169D+00 -0.32572928D+00
 -0.16894664D+00  0.15139333D-01  0.33745054D-01  0.26074221D-01 -0.35793217D-01
 -0.39694092D-01 -0.55762447D-01 -0.11677052D-01  0.21579837D-01  0.30315456D-01
  0.50502203D-02  0.92393934D-03  0.12979543D-02 -0.25812135D-03 -0.48020273D-01
 -0.67459105D-01 -0.12937203D-01  0.91056137D-01  0.12791609D+00  0.26210038D-01
MO   13     MO 0.0        OCC NO =    2.0000000  ORB. ENERGY =   -0.729799
  0.34482323D-02  0.48380126D-02  0.29681868D-02  0.11084983D-02 -0.10569977D-02
  0.28890552D+00  0.14969837D+00  0.11196897D+00  0.58017487D-01  0.19533100D+00
  0.10121210D+00 -0.12444332D-02  0.20878517D-01  0.10879242D-01  0.13391602D-01
 -0.27018952D-01 -0.37908707D-01 -0.23257510D-01 -0.22848417D-01  0.21786885D-01
 -0.48748220D+00 -0.25259224D+00 -0.14313840D+00 -0.74168142D-01 -0.10841095D+00
 -0.56173875D-01 -0.41695377D-02 -0.10910625D-01 -0.18495588D-01  0.99517750D-02
  0.17759069D+00  0.25447597D+00  0.16185391D+00  0.66512084D-01 -0.62965494D-01
  0.11291084D+01  0.57016151D+00 -0.38378062D+00 -0.19379622D+00  0.87787179D+00
  0.44329553D+00 -0.74575050D-01  0.12700698D+00 -0.36524420D-01  0.95134788D-01
  0.32512894D-01  0.46269272D-01  0.29159650D-01  0.61884971D-02 -0.57242511D-02
  0.31529900D+00  0.16353674D+00  0.28528225D-01  0.14796790D-01  0.18716339D+00
  0.97076399D-01 -0.25785643D-01  0.29437265D-01 -0.58593796D-02  0.22645055D-01
 -0.24122701D-01 -0.33887684D-01 -0.98744991D-02  0.38683663D-01  0.54342992D-01
  0.10204621D-01  0.27381367D-01  0.38465473D-01  0.12408731D-01  0.43997535D-01
  0.61807944D-01  0.18600653D-01 -0.28438592D-01 -0.39950667D-01 -0.14280540D-01
MO   14     MO 0.0        OCC NO =    2.0000000  ORB. ENERGY =   -0.689260
  0.76242204D-02  0.10697097D-01  0.65628148D-02  0.35518351D-02 -0.33868176D-02
 -0.10902128D+00 -0.56490125D-01 -0.73498049D-02 -0.38083517D-02  0.42883277D+00
  0.22220264D+00 -0.41276307D-02 -0.11247540D-01 -0.54355896D-03  0.41771776D-01
 -0.33582480D-02 -0.47117609D-02 -0.28907296D-02 -0.14373105D-02  0.13705334D-02
  0.15294813D+00  0.79251122D-01 -0.50221151D-01 -0.26022433D-01 -0.28290644D+00
 -0.14658991D+00  0.24155084D-02  0.19267975D-01 -0.10839031D-01 -0.33312289D-01
 -0.76626609D-02 -0.10980097D-01 -0.69836520D-02 -0.27202562D-02  0.25752053D-02
  0.38901297D+00  0.19643838D+00 -0.30033194D+00 -0.15165746D+00 -0.83681185D+00
 -0.42256165D+00  0.44806604D-02  0.42544835D-01 -0.34564589D-01 -0.91488247D-01
  0.16913152D-02  0.24069196D-02  0.15168800D-02 -0.18681433D-02  0.17279997D-02
  0.18624531D+00  0.96600213D-01 -0.35206885D+00 -0.18260823D+00 -0.51517450D+00
 -0.26720655D+00 -0.29805689D-02  0.22406896D-01 -0.43476181D-01 -0.60999318D-01
  0.95840554D-02  0.13463726D-01  0.23635283D-02 -0.36847171D-02 -0.51763080D-02
 -0.20160879D-02  0.68348648D-01  0.96016502D-01  0.26681966D-01 -0.23616868D-01
 -0.33177087D-01 -0.85472527D-02 -0.53607474D-01 -0.75308032D-01 -0.18801887D-01
MO   15     MO 0.0        OCC NO =    2.0000000  ORB. ENERGY =   -0.579627
  0.57406962D-01  0.80544341D-01  0.49415053D-01  0.96060053D-02 -0.91597124D-02
  0.23938851D+00  0.12404080D+00  0.25114516D+00  0.13013258D+00  0.61157161D-01
  0.31689002D-01 -0.53789497D-01  0.24867951D-01  0.30533871D-01  0.77008809D-02
  0.36394345D-01  0.51062771D-01  0.31327707D-01  0.10038831D-01 -0.95724294D-02
 -0.11642155D+00 -0.60324623D-01 -0.22534617D+00 -0.11676466D+00  0.39685370D-01
  0.20563246D-01 -0.28981551D-01 -0.79789722D-02  0.25120560D-01 -0.12562150D-01
 -0.88696298D-02 -0.12709606D-01 -0.80836682D-02 -0.51853256D-02  0.49088311D-02
  0.27704483D+00  0.13989826D+00  0.18637326D+01  0.94112184D+00 -0.39277079D+00
 -0.19833595D+00  0.35634018D-02  0.33364960D-01  0.21825270D+00 -0.42529272D-01
 -0.93178497D-01 -0.13260281D+00 -0.83568455D-01 -0.14970785D-01  0.13847713D-01
 -0.11073384D+00 -0.57434538D-01  0.21845588D+00  0.11330693D+00 -0.31724861D+00
 -0.16454795D+00  0.81564096D-01 -0.19297194D-01  0.40722205D-01 -0.50431509D-01
 -0.10893761D-01 -0.15303607D-01 -0.90259690D-02 -0.13065973D-01 -0.18355140D-01
 -0.97144246D-03  0.15592668D-01  0.21904653D-01  0.11248623D-01  0.23729876D-01
  0.33335842D-01  0.18853216D-01 -0.95637615D-03 -0.13435217D-02  0.88228551D-02
MO   16     MO 0.0        OCC NO =    2.0000000  ORB. ENERGY =   -0.562732
  0.10224936D-01  0.14346008D-01  0.88014718D-02  0.29989048D-02 -0.28595764D-02
  0.34115321D-01  0.17677087D-01  0.53967469D-01  0.27963614D-01  0.12568947D-01
  0.65126860D-02 -0.69781342D-02  0.86851415D-02  0.34433937D-02  0.70095700D-02
  0.47685335D-02  0.66904498D-02  0.41046823D-02 -0.88562556D-03  0.84447959D-03
  0.46578709D-02  0.24135077D-02 -0.65056446D-01 -0.33709443D-01 -0.47426980D-01
 -0.24574614D-01 -0.70686120D-02  0.53157148D-02 -0.92075346D-03 -0.15738492D-01
 -0.58086397D-02 -0.83234049D-02 -0.52939206D-02 -0.28252442D-02  0.26745952D-02
  0.67355020D+00  0.34012005D+00 -0.24773818D+00 -0.12509939D+00 -0.12389177D+01
 -0.62561149D+00  0.29934321D-02  0.83798296D-01 -0.33129562D-01 -0.15320808D+00
 -0.71263412D-03 -0.10141534D-02 -0.63913601D-03  0.57763472D-02 -0.53430197D-02
 -0.36941933D+00 -0.19160744D+00  0.45457557D+00  0.23577559D+00  0.82825813D+00
  0.42959425D+00  0.92014689D-02 -0.57526741D-01  0.67068310D-01  0.12152314D+00
 -0.23592707D-02 -0.33143147D-02 -0.19006008D-02 -0.15913548D-02 -0.22355427D-02
  0.10683273D-02  0.42677521D-02  0.59953583D-02  0.33110668D-02  0.12259142D-02
  0.17221700D-02 -0.65922494D-02  0.96979448D-03  0.13623718D-02  0.76247316D-02
END DATA
 TOTAL ENERGY =    -9075.618103003506 THE VIRIAL(-V/T)=  44.76021000
