 STEP 0
GAUSSIAN             16 MOL ORBITALS     75 PRIMITIVES        9 NUCLEI
  C    1    (CENTRE  1)   8.93936644  2.43497447  0.87680080  CHARGE =  6.0
  C    2    (CENTRE  2)   7.36056073  0.06262741  0.97741737  CHARGE =  6.0
  O    3    (CENTRE  3)   5.24024834 -0.02219294 -0.04117146  CHARGE =  8.0
  N    4    (CENTRE  4)   8.33270955 -1.88335775  2.22964250  CHARGE =  7.0
  H    5    (CENTRE  5)   7.37283073 -3.29126796  2.58240901  CHARGE =  1.0
  H    6    (CENTRE  6)   9.87025498 -1.86191691  2.89911955  CHARGE =  1.0
  H    7    (CENTRE  7)   8.51295919  3.38530451  2.36314787  CHARGE =  1.0
  H    8    (CENTRE  8)  10.67377408  1.97476002  0.82831987  CHARGE =  1.0
  H    9    (CENTRE  9)   8.40437553  3.61099072 -0.47750167  CHARGE =  1.0
CENTRE ASSIGNMENTS    1  1  1  1  1  1  1  1  1  1  1  1  1  1  1  2  2  2  2  2
CENTRE ASSIGNMENTS    2  2  2  2  2  2  2  2  2  2  3  3  3  3  3  3  3  3  3  3
CENTRE ASSIGNMENTS    3  3  3  3  3  4  4  4  4  4  4  4  4  4  4  4  4  4  4  4
CENTRE ASSIGNMENTS    5  5  5  6  6  6  7  7  7  8  8  8  9  9  9
TYPE ASSIGNMENTS      1  1  1  1  1  2  2  3  3  4  4  1  2  3  4  1  1  1  1  1
TYPE ASSIGNMENTS      2  2  3  3  4  4  1  2  3  4  1  1  1  1  1  2  2  3  3  4
TYPE ASSIGNMENTS      4  1  2  3  4  1  1  1  1  1  2  2  3  3  4  4  1  2  3  4
TYPE ASSIGNMENTS      1  1  1  1  1  1  1  1  1  1  1  1  1  1  1
EXPONENTS  0.1722560D+03 0.2591090D+02 0.5533350D+01 0.3664980D+01 0.7705450D+00
EXPONENTS  0.3664980D+01 0.7705450D+00 0.3664980D+01 0.7705450D+00 0.3664980D+01
EXPONENTS  0.7705450D+00 0.1958570D+00 0.1958570D+00 0.1958570D+00 0.1958570D+00
EXPONENTS  0.1722560D+03 0.2591090D+02 0.5533350D+01 0.3664980D+01 0.7705450D+00
EXPONENTS  0.3664980D+01 0.7705450D+00 0.3664980D+01 0.7705450D+00 0.3664980D+01
EXPONENTS  0.7705450D+00 0.1958570D+00 0.1958570D+00 0.1958570D+00 0.1958570D+00
EXPONENTS  0.3220370D+03 0.4843080D+02 0.1042060D+02 0.7402940D+01 0.1576200D+01
EXPONENTS  0.7402940D+01 0.1576200D+01 0.7402940D+01 0.1576200D+01 0.7402940D+01
EXPONENTS  0.1576200D+01 0.3736840D+00 0.3736840D+00 0.3736840D+00 0.3736840D+00
EXPONENTS  0.2427660D+03 0.3648510D+02 0.7814490D+01 0.5425220D+01 0.1149150D+01
EXPONENTS  0.5425220D+01 0.1149150D+01 0.5425220D+01 0.1149150D+01 0.5425220D+01
EXPONENTS  0.1149150D+01 0.2832050D+00 0.2832050D+00 0.2832050D+00 0.2832050D+00
EXPONENTS  0.5447178D+01 0.8245472D+00 0.1831916D+00 0.5447178D+01 0.8245472D+00
EXPONENTS  0.1831916D+00 0.5447178D+01 0.8245472D+00 0.1831916D+00 0.5447178D+01
EXPONENTS  0.8245472D+00 0.1831916D+00 0.5447178D+01 0.8245472D+00 0.1831916D+00
MO    1     MO 0.0        OCC NO =    2.0000000  ORB. ENERGY =  -20.398759
 -0.10110198D-03 -0.14185025D-03 -0.87027069D-04  0.24924389D-03 -0.23766407D-03
 -0.95217755D-04 -0.49337732D-04 -0.88756620D-04 -0.45989850D-04 -0.23059251D-03
 -0.11948309D-03  0.14830099D-02  0.81211264D-03 -0.13853216D-02  0.92840435D-03
  0.24911287D-03  0.34951566D-03  0.21443263D-03 -0.11266351D-02  0.10742919D-02
 -0.27027609D-02 -0.14004541D-02  0.30934186D-03  0.16028760D-03 -0.14834106D-02
 -0.76863935D-03  0.31503385D-02 -0.52399009D-02 -0.74697309D-03 -0.22669357D-02
  0.31576437D+01  0.45246991D+01  0.28778364D+01 -0.12991087D+00  0.12298370D+00
  0.17796433D-01  0.89865960D-02  0.16450442D-03  0.83069163D-04  0.88483877D-02
  0.44681362D-02 -0.19869622D-01 -0.61041777D-02  0.83348519D-05 -0.30416717D-02
 -0.13535046D-03 -0.19261795D-03 -0.12139098D-03  0.39552698D-03 -0.36585551D-03
 -0.20569719D-02 -0.10668936D-02 -0.20780889D-02 -0.10778464D-02  0.82488900D-04
  0.42784677D-04  0.10711617D-02  0.26167267D-02  0.19208618D-02  0.32883246D-03
  0.99494343D-03  0.13977012D-02  0.35676944D-03 -0.10823158D-02 -0.15204424D-02
 -0.29683495D-03  0.23573143D-04  0.33115663D-04 -0.14462331D-03 -0.46983564D-03
 -0.66002733D-03 -0.49863761D-03  0.34625132D-03  0.48641549D-03  0.71369511D-03
MO    2     MO 0.0        OCC NO =    2.0000000  ORB. ENERGY =  -15.484698
 -0.31661252D-03 -0.44422046D-03 -0.27253532D-03  0.87404714D-03 -0.83343910D-03
  0.52762911D-03  0.27339464D-03  0.65798659D-03  0.34094026D-03 -0.34263665D-03
 -0.17753953D-03  0.10180025D-02 -0.10173292D-02  0.33537726D-03 -0.34023827D-03
 -0.25752757D-03 -0.36132183D-03 -0.22167588D-03  0.91924559D-03 -0.87653764D-03
  0.51465985D-04  0.26667453D-04 -0.46352595D-03 -0.24017915D-03  0.24936868D-03
  0.12921209D-03  0.44228877D-02  0.14147145D-02 -0.35033269D-02  0.20494491D-02
  0.49073363D-04  0.70318954D-04  0.44724841D-04  0.31877291D-03 -0.30177514D-03
 -0.10135774D-02 -0.51182224D-03 -0.25529247D-02 -0.12891406D-02  0.58249159D-03
  0.29413853D-03  0.33039741D-03  0.95051491D-04  0.17403290D-02 -0.65243640D-03
  0.25868858D+01  0.36814109D+01  0.23200852D+01 -0.10752871D+00  0.99462163D-01
 -0.11709412D-02 -0.60733435D-03  0.27769766D-02  0.14403398D-02 -0.92129070D-03
 -0.47784763D-03 -0.19280818D-01  0.15174687D-02 -0.25146089D-02  0.16043043D-02
  0.40317601D-03  0.56638356D-03  0.15102479D-02 -0.20414082D-04 -0.28677798D-04
  0.17262078D-02 -0.81546807D-04 -0.11455734D-03 -0.34532108D-03  0.17424260D-03
  0.24477682D-03  0.26246530D-03 -0.45271336D-03 -0.63597386D-03 -0.20863791D-03
MO    3     MO 0.0        OCC NO =    2.0000000  ORB. ENERGY =  -11.293457
 -0.22217138D-02 -0.31171563D-02 -0.19124180D-02  0.17772369D-02 -0.16946669D-02
  0.40804676D-03  0.21143223D-03  0.83550201D-03  0.43292109D-03  0.45158923D-03
  0.23399405D-03  0.49088852D-02 -0.13055534D-02 -0.28981742D-02  0.93308664D-04
  0.20653287D+01  0.28977416D+01  0.17778040D+01 -0.71140088D-01  0.67834935D-01
  0.21526183D-03  0.11153939D-03  0.10923097D-02  0.56598776D-03 -0.13494949D-03
 -0.69925001D-04 -0.10979912D-01 -0.35022775D-02 -0.28794584D-02 -0.62789063D-03
  0.66270616D-03  0.94961504D-03  0.60398199D-03 -0.25042840D-02  0.23707494D-02
 -0.10709192D-02 -0.54077796D-03 -0.19952107D-02 -0.10075138D-02  0.22369515D-03
  0.11295847D-03 -0.18803324D-02 -0.17858537D-02  0.11683972D-02 -0.13331933D-02
  0.11655063D-03  0.16586382D-03  0.10453009D-03  0.34859193D-03 -0.32244142D-03
 -0.98335836D-03 -0.51004038D-03 -0.35965051D-02 -0.18654062D-02  0.11048639D-02
  0.57306190D-03  0.17393167D-02  0.21773951D-02  0.15708533D-02  0.32141401D-03
  0.49276069D-03  0.69223254D-03  0.54875207D-03 -0.11035181D-02 -0.15502274D-02
 -0.22929812D-03 -0.66833111D-03 -0.93887469D-03  0.82178581D-03 -0.70753046D-03
 -0.99394213D-03  0.23632630D-03 -0.44588229D-03 -0.62637754D-03  0.46250723D-03
MO    4     MO 0.0        OCC NO =    2.0000000  ORB. ENERGY =  -11.137383
  0.20665283D+01  0.28994246D+01  0.17788366D+01 -0.77861368D-01  0.74243946D-01
 -0.66814640D-05 -0.34620463D-05  0.63769896D-03  0.33042808D-03  0.89835612D-03
  0.46548938D-03 -0.19578158D-01  0.94366801D-03  0.28061606D-03 -0.29535566D-03
  0.10315025D-02  0.14472406D-02  0.88790190D-03  0.11803319D-02 -0.11254939D-02
 -0.46050616D-04 -0.23861442D-04  0.54834832D-04  0.28413044D-04  0.15307304D-03
  0.79315844D-04  0.37471136D-02  0.82840917D-03  0.25332721D-02 -0.54927805D-03
  0.10980877D-03  0.15734886D-03  0.10007832D-03  0.14409413D-04 -0.13641067D-04
 -0.84099622D-03 -0.42467461D-03  0.25746906D-03  0.13001316D-03 -0.59451985D-03
 -0.30021239D-03 -0.51883962D-03 -0.26629913D-03 -0.70633524D-03  0.16653496D-03
 -0.18485576D-03 -0.26306921D-03 -0.16579051D-03  0.10633918D-02 -0.98361875D-03
  0.83334869D-04  0.43223458D-04 -0.21381554D-02 -0.11090012D-02  0.69392355D-03
  0.35991867D-03  0.83894482D-03 -0.31998779D-03  0.70076256D-03 -0.39816551D-03
 -0.76995632D-05 -0.10816383D-04  0.36500489D-03 -0.57618985D-04 -0.80943422D-04
  0.55830058D-04 -0.34378149D-03 -0.48294585D-03  0.39666932D-02 -0.69896702D-03
 -0.98191216D-03  0.35571465D-02 -0.21620769D-03 -0.30372958D-03  0.35367902D-02
MO    5     MO 0.0        OCC NO =    2.0000000  ORB. ENERGY =   -1.366852
 -0.55789361D-01 -0.78274781D-01 -0.48022647D-01 -0.21067971D-01  0.20089158D-01
 -0.26680880D-01 -0.13824881D-01 -0.34617744D-01 -0.17937421D-01  0.16081005D-02
  0.83324828D-03  0.38164656D-02 -0.84108038D-03  0.54462048D-02 -0.16163080D-02
 -0.28587858D+00 -0.40109947D+00 -0.24608000D+00 -0.11602381D+00  0.11063337D+00
 -0.16119893D+00 -0.83526328D-01 -0.63388953D-01 -0.32845420D-01 -0.52132061D-01
 -0.27012584D-01  0.31097138D-01  0.12891182D-01  0.81825723D-02  0.33502218D-02
 -0.58608980D+00 -0.83982877D+00 -0.53415482D+00 -0.21610423D+00  0.20458102D+00
  0.40952304D+00  0.20679527D+00  0.39915765D-02  0.20156110D-02  0.20246576D+00
  0.10223835D+00  0.19944819D+00  0.45632422D-01 -0.31472768D-02  0.24131700D-01
 -0.23466075D+00 -0.33394695D+00 -0.21045882D+00 -0.86558724D-01  0.80065299D-01
 -0.52742846D-01 -0.27356234D-01  0.80973912D-01  0.41998896D-01 -0.50415046D-01
 -0.26148869D-01  0.66592127D-01 -0.13711627D-01  0.30968288D-02 -0.68564634D-02
  0.13922520D-01  0.19558421D-01 -0.74358405D-03  0.19409662D-01  0.27266784D-01
  0.63816013D-03  0.46170208D-02  0.64860126D-02 -0.18006971D-02  0.54048402D-02
  0.75927450D-02 -0.15863407D-03  0.36223647D-02  0.50887150D-02 -0.27467315D-02
MO    6     MO 0.0        OCC NO =    2.0000000  ORB. ENERGY =   -1.240476
 -0.28597479D-01 -0.40123446D-01 -0.24616282D-01 -0.11817038D-01  0.11268021D-01
  0.87424408D-02  0.45299556D-02 -0.23632431D-01 -0.12245306D-01  0.13761795D-01
  0.71307681D-02  0.51638513D-02  0.49364509D-02 -0.29806377D-02  0.32832295D-02
 -0.43966366D-01 -0.61686629D-01 -0.37845590D-01 -0.21322266D-01  0.20331638D-01
  0.22364160D+00  0.11588143D+00 -0.12850198D+00 -0.66584181D-01  0.16312809D+00
  0.84525935D-01 -0.25664825D-03 -0.28935381D-02  0.64277772D-02 -0.39239171D-02
  0.36281161D+00  0.51988557D+00  0.33066190D+00  0.13701780D+00 -0.12971167D+00
 -0.17995122D+00 -0.90869272D-01 -0.50096439D-01 -0.25297005D-01 -0.68392177D-01
 -0.34535734D-01 -0.12609675D+00 -0.21002292D-01 -0.74457912D-02 -0.75009239D-02
 -0.51654814D+00 -0.73510239D+00 -0.46327352D+00 -0.18831908D+00  0.17419184D+00
  0.38415439D-01  0.19925010D-01  0.43468172D-01  0.22545721D-01  0.22270462D-01
  0.11551064D-01  0.16841186D+00 -0.52010439D-03  0.13537334D-01 -0.37428721D-02
  0.42488305D-01  0.59687770D-01  0.19247152D-02  0.50526257D-01  0.70979524D-01
  0.20751750D-02  0.29970417D-02  0.42102583D-02 -0.63481291D-04  0.38955487D-02
  0.54724851D-02 -0.15319174D-02  0.21742596D-02  0.30544102D-02  0.10370828D-02
MO    7     MO 0.0        OCC NO =    2.0000000  ORB. ENERGY =   -1.046133
 -0.42381247D+00 -0.59462642D+00 -0.36481143D+00 -0.14548345D+00  0.13872432D+00
 -0.56857283D-02 -0.29460991D-02 -0.10130370D-01 -0.52491207D-02  0.31267381D-01
  0.16201408D-01  0.12025447D+00 -0.18050936D-02  0.70679268D-03  0.30637924D-02
 -0.10704431D+00 -0.15018760D+00 -0.92142143D-01 -0.46188229D-01  0.44042334D-01
  0.15787769D+00  0.81805408D-01  0.18147028D+00  0.94030067D-01  0.11719241D-01
  0.60724052D-02  0.19277993D-01  0.84274213D-02  0.26997946D-02  0.33115688D-02
  0.12876153D+00  0.18450695D+00  0.11735163D+00  0.51830105D-01 -0.49066395D-01
  0.88724396D-02  0.44802816D-02  0.10012763D+00  0.50561063D-01 -0.30550442D-01
 -0.15426939D-01 -0.43217572D-01  0.28825700D-04  0.71504268D-02 -0.26803689D-02
  0.11667871D+00  0.16604609D+00  0.10464495D+00  0.40514841D-01 -0.37475516D-01
  0.33128348D-01  0.17182744D-01  0.15610286D+00  0.80966173D-01 -0.54739031D-01
 -0.28391599D-01 -0.44178397D-01  0.27377503D-02  0.65508680D-02 -0.22958400D-02
 -0.22119003D-01 -0.31072880D-01 -0.35527849D-02 -0.11075467D-01 -0.15558868D-01
 -0.13292425D-02  0.52582161D-01  0.73867668D-01 -0.26117769D-02  0.52106203D-01
  0.73199039D-01 -0.47775663D-03  0.45310303D-01  0.63652127D-01 -0.15695053D-02
MO    8     MO 0.0        OCC NO =    2.0000000  ORB. ENERGY =   -0.832948
  0.10852578D+00  0.15226616D+00  0.93417369D-01  0.33239558D-01 -0.31695255D-01
 -0.46700720D-01 -0.24198298D-01 -0.18522104D+00 -0.95973548D-01  0.24111370D-01
  0.12493471D-01 -0.43488489D-01  0.21815233D-02 -0.52837919D-02  0.23518325D-03
 -0.25760484D+00 -0.36143025D+00 -0.22174239D+00 -0.11249860D+00  0.10727194D+00
  0.16998296D+00  0.88077834D-01 -0.20849393D+00 -0.10803256D+00  0.16157835D+00
  0.83722930D-01  0.61680557D-01  0.15547783D-01  0.42533902D-02  0.66211629D-02
  0.19056826D+00  0.27307198D+00  0.17368149D+00  0.75718114D-01 -0.71680636D-01
  0.19741501D+00  0.99687894D-01 -0.14388436D+00 -0.72656732D-01  0.14813293D+00
  0.74802113D-01 -0.72448688D-01  0.17186399D-01 -0.15823899D-01  0.13699213D-01
  0.80722409D-01  0.11487649D+00  0.72397036D-01  0.32017053D-01 -0.29615211D-01
 -0.37553251D+00 -0.19477817D+00  0.71108742D+00  0.36882109D+00 -0.49874199D+00
 -0.25868347D+00 -0.26747743D-01 -0.36183842D-01  0.59701763D-01 -0.44640194D-01
 -0.49817760D-01 -0.69984223D-01 -0.10767855D-01 -0.57322270D-01 -0.80526594D-01
 -0.11887672D-01 -0.22859861D-01 -0.32113640D-01 -0.42712008D-02 -0.15542084D-01
 -0.21833593D-01 -0.45113412D-02 -0.28588451D-01 -0.40161190D-01 -0.71820256D-02
MO    9     MO 0.0        OCC NO =    2.0000000  ORB. ENERGY =   -0.767083
  0.65404422D-01  0.91765109D-01  0.56299148D-01  0.20772394D-01 -0.19807313D-01
 -0.22521002D-01 -0.11669411D-01 -0.16937677D+00 -0.87763734D-01  0.65395131D-02
  0.33884935D-02 -0.25677546D-01 -0.43696075D-03 -0.11896259D-01  0.20148770D-02
 -0.18250290D-01 -0.25605912D-01 -0.15709576D-01 -0.29961198D-02  0.28569208D-02
  0.12513259D+00  0.64838306D-01  0.15862335D+00  0.82191775D-01 -0.28807121D-01
 -0.14926607D-01  0.86754685D-02  0.72137449D-02  0.10316685D-01 -0.25250480D-02
 -0.84262878D-01 -0.12074325D+00 -0.76796119D-01 -0.28121559D-01  0.26622048D-01
 -0.82960493D-01 -0.41892240D-01  0.21220136D+00  0.10715450D+00 -0.15843057D+00
 -0.80002076D-01  0.36723991D-01 -0.45975798D-02  0.18491304D-01 -0.12602039D-01
  0.20476250D-01  0.29139859D-01  0.18364415D-01  0.79635893D-02 -0.73661802D-02
  0.96012187D+00  0.49798827D+00  0.45178027D+00  0.23432575D+00  0.16379472D+00
  0.84955722D-01 -0.96200771D-02  0.85674983D-01  0.43464275D-01  0.12825603D-01
 -0.80748321D-01 -0.11343562D+00 -0.17751328D-01  0.87990366D-01  0.12360928D+00
  0.20780158D-01 -0.20895211D-01 -0.29353691D-01 -0.44996339D-02 -0.60382755D-02
 -0.84825978D-02  0.11982896D-02 -0.23033072D-01 -0.32356968D-01 -0.29490438D-02
MO   10     MO 0.0        OCC NO =    2.0000000  ORB. ENERGY =   -0.668185
 -0.40512518D-01 -0.56840738D-01 -0.34872569D-01 -0.11166464D-01  0.10647673D-01
  0.52977494D+00  0.27450651D+00  0.10736857D-01  0.55633760D-02 -0.16366443D-01
 -0.84803846D-02  0.22124259D-01  0.38052496D-01 -0.92132115D-02  0.16271269D-02
  0.13745744D+00  0.19285847D+00  0.11832130D+00  0.59399944D-01 -0.56640236D-01
  0.10029353D+00  0.51967779D-01 -0.35041366D+00 -0.18156924D+00  0.70063874D-01
  0.36304076D-01 -0.48122597D-01 -0.10461330D-01 -0.30716731D-01 -0.32049712D-02
 -0.19868597D+00 -0.28470414D+00 -0.18107988D+00 -0.75072327D-01  0.71069284D-01
 -0.55229422D+00 -0.27888988D+00 -0.57990823D+00 -0.29283402D+00 -0.21739248D+00
 -0.10977584D+00  0.82781588D-01 -0.51475236D-01 -0.50106226D-01 -0.21836155D-01
 -0.10472939D-01 -0.14904095D-01 -0.93928037D-02 -0.53332652D-02  0.49331767D-02
  0.11235079D-01  0.58273202D-02  0.19574528D+00  0.10152758D+00 -0.23257721D+00
 -0.12063127D+00  0.48997105D-02  0.80748079D-02  0.25493454D-01 -0.23668460D-01
 -0.17893726D-01 -0.25137191D-01 -0.32038420D-02 -0.54400910D-02 -0.76422654D-02
 -0.92413286D-03 -0.14112988D-01 -0.19825991D-01 -0.33529215D-02  0.88238870D-01
  0.12395838D+00  0.29831675D-01 -0.12728252D-01 -0.17880708D-01 -0.13829061D-03
MO   11     MO 0.0        OCC NO =    2.0000000  ORB. ENERGY =   -0.640312
  0.29562589D-02  0.41477535D-02  0.25447034D-02  0.35985091D-02 -0.34313231D-02
 -0.15586537D+00 -0.80762711D-01  0.33736475D+00  0.17480785D+00  0.39947252D+00
  0.20698942D+00  0.68649047D-02 -0.13300959D-01  0.20673090D-01  0.33395903D-01
  0.78691483D-01  0.11040741D+00  0.67736451D-01  0.34370239D-01 -0.32773405D-01
 -0.46143311D-01 -0.23909472D-01 -0.15345618D+00 -0.79514368D-01  0.31410880D+00
  0.16275763D+00 -0.28470001D-01 -0.17680765D-01 -0.13011780D-01  0.20675835D-01
 -0.11609185D+00 -0.16635211D+00 -0.10580464D+00 -0.45036142D-01  0.42634703D-01
 -0.59027030D+00 -0.29806652D+00 -0.22121364D+00 -0.11170540D+00  0.25336811D+00
  0.12794231D+00  0.47623429D-01 -0.57500624D-01 -0.17872528D-01  0.23122861D-01
 -0.18067045D-01 -0.25711307D-01 -0.16203685D-01 -0.69740314D-02  0.64508565D-02
 -0.16656020D-01 -0.86390103D-02  0.41121613D+00  0.21328626D+00  0.12835127D+00
  0.66572203D-01  0.88537541D-02  0.12020760D-02  0.45632611D-01  0.15669741D-01
 -0.27629000D-01 -0.38813349D-01 -0.76658234D-02  0.68170081D-02  0.95765651D-02
  0.13591760D-02  0.87610418D-01  0.12307553D+00  0.32184995D-01 -0.42711105D-01
 -0.60000761D-01 -0.15007221D-01 -0.92361996D-02 -0.12975057D-01 -0.24761260D-02
MO   12     MO 0.0        OCC NO =    2.0000000  ORB. ENERGY =   -0.604101
 -0.67874693D-02 -0.95231002D-02 -0.58425520D-02 -0.26637796D-02  0.25400210D-02
 -0.18210432D+00 -0.94358599D-01  0.41496136D+00  0.21501507D+00 -0.39549521D+00
 -0.20492855D+00  0.86665136D-02 -0.18078054D-01  0.34789638D-01 -0.35484217D-01
  0.28956805D-01  0.40627595D-01  0.24925584D-01  0.63351524D-02 -0.60408226D-02
 -0.22361354D-01 -0.11586689D-01 -0.30277539D+00 -0.15688514D+00 -0.80373447D-01
 -0.41646052D-01 -0.17844677D-01 -0.27302130D-02 -0.24104364D-01 -0.10187002D-01
  0.18319661D-01  0.26250889D-01  0.16696307D-01  0.48339386D-02 -0.45761810D-02
  0.13960172D+00  0.70494140D-01 -0.36418852D+00 -0.18390287D+00 -0.13069697D+00
 -0.65997543D-01 -0.97001394D-02  0.13846661D-01 -0.32534772D-01 -0.14519382D-01
 -0.43865995D-01 -0.62425929D-01 -0.39341839D-01 -0.15004874D-01  0.13879245D-01
  0.23247552D+00  0.12057853D+00  0.25711407D+00  0.13335785D+00 -0.34342847D+00
 -0.17812671D+00  0.20310890D-01  0.24917188D-01  0.27726222D-01 -0.38286209D-01
 -0.36956200D-01 -0.51916244D-01 -0.12633092D-01  0.15264849D-01  0.21444131D-01
  0.48722455D-02 -0.12285446D-01 -0.17258653D-01 -0.46371168D-02 -0.43437549D-01
 -0.61021273D-01 -0.13569329D-01  0.99114284D-01  0.13923621D+00  0.32840495D-01
MO   13     MO 0.0        OCC NO =    2.0000000  ORB. ENERGY =   -0.555213
  0.10424549D-01  0.14626074D-01  0.89732959D-02  0.29405110D-02 -0.28038955D-02
  0.22713560D+00  0.11769187D+00  0.14140569D+00  0.73270327D-01  0.15016883D+00
  0.77811010D-01 -0.53988832D-02  0.15838427D-01  0.16540127D-01  0.96396768D-02
 -0.55816664D-01 -0.78313088D-01 -0.48046149D-01 -0.38261665D-01  0.36484037D-01
 -0.50236163D+00 -0.26030212D+00 -0.15293061D+00 -0.79242041D-01 -0.17170980D+00
 -0.88972611D-01  0.62950463D-02 -0.97083211D-02 -0.17019670D-01  0.34582056D-02
  0.23392013D+00  0.33519242D+00  0.21319185D+00  0.88531954D-01 -0.83811210D-01
  0.13236568D+01  0.66840188D+00 -0.34198923D+00 -0.17269298D+00  0.81381118D+00
  0.41094709D+00 -0.10096337D+00  0.13982297D+00 -0.32028824D-01  0.84411586D-01
  0.33864892D-01  0.48193306D-01  0.30372208D-01  0.72839546D-02 -0.67375300D-02
  0.28932512D+00  0.15006482D+00 -0.20101460D-01 -0.10426063D-01  0.90236429D-01
  0.46803103D-01 -0.26546194D-01  0.23515823D-01 -0.12487444D-01  0.10457886D-01
 -0.22569226D-01 -0.31705355D-01 -0.12222068D-01  0.35917794D-01  0.50457486D-01
  0.14525636D-01  0.25087780D-01  0.35243432D-01  0.11353803D-01  0.33149955D-01
  0.46569213D-01  0.16441040D-01 -0.19420324D-01 -0.27281762D-01 -0.13355245D-01
MO   14     MO 0.0        OCC NO =    2.0000000  ORB. ENERGY =   -0.529206
 -0.14731372D-02 -0.20668725D-02 -0.12680545D-02 -0.11365289D-02  0.10837260D-02
  0.11922355D+00  0.61776501D-01 -0.92985250D-02 -0.48180944D-02 -0.35303332D+00
 -0.18292663D+00  0.10126046D-03  0.12439965D-01 -0.12725809D-02 -0.34940750D-01
 -0.23602289D-02 -0.33114987D-02 -0.20316497D-02 -0.25178439D-02  0.24008654D-02
 -0.18788008D+00 -0.97351348D-01  0.71287898D-01  0.36938312D-01  0.29711888D+00
  0.15395418D+00 -0.17487083D-02 -0.19384903D-01  0.11817995D-01  0.35107073D-01
  0.17056789D-01  0.24441275D-01  0.15545341D-01  0.66237960D-02 -0.62705987D-02
 -0.26528402D+00 -0.13395945D+00  0.25054738D+00  0.12651794D+00  0.77917540D+00
  0.39345719D+00 -0.76855253D-02 -0.27118172D-01  0.26910171D-01  0.81395805D-01
  0.37964044D-02  0.54026832D-02  0.34048591D-02  0.30850312D-02 -0.28535997D-02
 -0.24310471D+00 -0.12609159D+00  0.39445633D+00  0.20459343D+00  0.67947937D+00
  0.35242688D+00 -0.21426962D-03 -0.31149940D-01  0.48623368D-01  0.81364256D-01
 -0.76951765D-02 -0.10810220D-01 -0.30552173D-02  0.55116741D-02  0.77428257D-02
  0.28290615D-02 -0.60151595D-01 -0.84501244D-01 -0.23135925D-01  0.25166376D-01
  0.35353843D-01  0.93312219D-02  0.41688573D-01  0.58564304D-01  0.17040221D-01
MO   15     MO 0.0        OCC NO =    2.0000000  ORB. ENERGY =   -0.399394
  0.62334955D-01  0.87458519D-01  0.53656996D-01  0.10289946D-01 -0.98118769D-02
  0.22729172D+00  0.11777276D+00  0.23706908D+00  0.12283897D+00  0.52374360D-01
  0.27138133D-01 -0.60591034D-01  0.25694346D-01  0.31143944D-01  0.77240579D-02
  0.30745300D-01  0.43136928D-01  0.26465094D-01  0.88854960D-02 -0.84726778D-02
 -0.11012610D+00 -0.57062594D-01 -0.17814721D+00 -0.92308195D-01  0.38360092D-01
  0.19876544D-01 -0.25462255D-01 -0.83812824D-02  0.33663090D-01 -0.14313300D-01
 -0.27420785D-02 -0.39292211D-02 -0.24990956D-02 -0.25380722D-02  0.24027359D-02
  0.29928993D+00  0.15113128D+00  0.19270387D+01  0.97308930D+00 -0.44924293D+00
 -0.22685247D+00 -0.18285771D-03  0.34153635D-01  0.21545036D+00 -0.48395317D-01
 -0.99336163D-01 -0.14136582D+00 -0.89091046D-01 -0.14472490D-01  0.13386799D-01
 -0.12594320D+00 -0.65323202D-01  0.21549753D+00  0.11177252D+00 -0.26752879D+00
 -0.13875968D+00  0.91122900D-01 -0.22560994D-01  0.43249735D-01 -0.45457468D-01
 -0.86986274D-02 -0.12219873D-01 -0.92154615D-02 -0.14028642D-01 -0.19707502D-01
 -0.27884143D-02  0.12402292D-01  0.17422798D-01  0.98288388D-02  0.22410515D-01
  0.31482396D-01  0.19627741D-01 -0.15561072D-02 -0.21860267D-02  0.98228720D-02
MO   16     MO 0.0        OCC NO =    2.0000000  ORB. ENERGY =   -0.392081
  0.85591516D-02  0.12008844D-01  0.73675896D-02  0.29680432D-02 -0.28301486D-02
  0.15049468D-01  0.77979848D-02  0.50091571D-01  0.25955290D-01  0.37066028D-01
  0.19206016D-01 -0.51514704D-02  0.69187027D-02  0.25301691D-02  0.10794102D-01
  0.33729860D-02  0.47324388D-02  0.29034158D-02 -0.64535435D-03  0.61537133D-03
  0.50245226D-01  0.26034908D-01 -0.85072160D-01 -0.44080722D-01 -0.13179091D+00
 -0.68288364D-01 -0.58459107D-02  0.10100510D-01 -0.56999807D-02 -0.27355666D-01
 -0.29157543D-02 -0.41780873D-02 -0.26573815D-02 -0.17278768D-02  0.16357421D-02
  0.70247802D+00  0.35472762D+00 -0.33959168D+00 -0.17148230D+00 -0.13017755D+01
 -0.65735255D+00  0.79687374D-03  0.83756158D-01 -0.41924896D-01 -0.15499018D+00
 -0.62693617D-03 -0.89219618D-03 -0.56227659D-03  0.41700928D-02 -0.38572625D-02
 -0.33917849D+00 -0.17592237D+00  0.40674192D+00  0.21096562D+00  0.77850801D+00
  0.40379026D+00  0.81465059D-02 -0.54046889D-01  0.62322785D-01  0.11650537D+00
 -0.87374480D-04 -0.12274408D-03 -0.14938881D-02 -0.56467219D-03 -0.79325415D-03
  0.29516985D-03  0.97358539D-02  0.13676973D-01  0.61045815D-02 -0.27570761D-02
 -0.38731535D-02 -0.92374711D-02 -0.22777545D-02 -0.31998003D-02  0.64012105D-02
END DATA
 TOTAL ENERGY =     -206.753072267457 THE VIRIAL(-V/T)=   1.99707572
