 STEP 1
GAUSSIAN             16 MOL ORBITALS     75 PRIMITIVES        9 NUCLEI
  C    1    (CENTRE  1)   8.93936644  2.43497447  0.87680080  CHARGE =  6.0
  C    2    (CENTRE  2)   7.36056073  0.06262741  0.97741737  CHARGE =  6.0
  O    3    (CENTRE  3)   5.24024834 -0.02219294 -0.04117146  CHARGE =  8.0
  N    4    (CENTRE  4)   8.33270955 -1.88335775  2.22964250  CHARGE =  7.0
  H    5    (CENTRE  5)   7.37283073 -3.29126796  2.58240901  CHARGE =  1.0
  H    6    (CENTRE  6)   9.87025498 -1.86191691  2.89911955  CHARGE =  1.0
  H    7    (CENTRE  7)   8.51295919  3.38530451  2.36314787  CHARGE =  1.0
  H    8    (CENTRE  8)  10.67377408  1.97476002  0.82831987  CHARGE =  1.0
  H    9    (CENTRE  9)   8.40437553  3.61099072 -0.47750167  CHARGE =  1.0
CENTRE ASSIGNMENTS    1  1  1  1  1  1  1  1  1  1  1  1  1  1  1  2  2  2  2  2
CENTRE ASSIGNMENTS    2  2  2  2  2  2  2  2  2  2  3  3  3  3  3  3  3  3  3  3
CENTRE ASSIGNMENTS    3  3  3  3  3  4  4  4  4  4  4  4  4  4  4  4  4  4  4  4
CENTRE ASSIGNMENTS    5  5  5  6  6  6  7  7  7  8  8  8  9  9  9
TYPE ASSIGNMENTS      1  1  1  1  1  2  2  3  3  4  4  1  2  3  4  1  1  1  1  1
TYPE ASSIGNMENTS      2  2  3  3  4  4  1  2  3  4  1  1  1  1  1  2  2  3  3  4
TYPE ASSIGNMENTS      4  1  2  3  4  1  1  1  1  1  2  2  3  3  4  4  1  2  3  4
TYPE ASSIGNMENTS      1  1  1  1  1  1  1  1  1  1  1  1  1  1  1
EXPONENTS  0.1722560D+03 0.2591090D+02 0.5533350D+01 0.3664980D+01 0.7705450D+00
EXPONENTS  0.3664980D+01 0.7705450D+00 0.3664980D+01 0.7705450D+00 0.3664980D+01
EXPONENTS  0.7705450D+00 0.1958570D+00 0.1958570D+00 0.1958570D+00 0.1958570D+00
EXPONENTS  0.1722560D+03 0.2591090D+02 0.5533350D+01 0.3664980D+01 0.7705450D+00
EXPONENTS  0.3664980D+01 0.7705450D+00 0.3664980D+01 0.7705450D+00 0.3664980D+01
EXPONENTS  0.7705450D+00 0.1958570D+00 0.1958570D+00 0.1958570D+00 0.1958570D+00
EXPONENTS  0.3220370D+03 0.4843080D+02 0.1042060D+02 0.7402940D+01 0.1576200D+01
EXPONENTS  0.7402940D+01 0.1576200D+01 0.7402940D+01 0.1576200D+01 0.7402940D+01
EXPONENTS  0.1576200D+01 0.3736840D+00 0.3736840D+00 0.3736840D+00 0.3736840D+00
EXPONENTS  0.2427660D+03 0.3648510D+02 0.7814490D+01 0.5425220D+01 0.1149150D+01
EXPONENTS  0.5425220D+01 0.1149150D+01 0.5425220D+01 0.1149150D+01 0.5425220D+01
EXPONENTS  0.1149150D+01 0.2832050D+00 0.2832050D+00 0.2832050D+00 0.2832050D+00
EXPONENTS  0.5447178D+01 0.8245472D+00 0.1831916D+00 0.5447178D+01 0.8245472D+00
EXPONENTS  0.1831916D+00 0.5447178D+01 0.8245472D+00 0.1831916D+00 0.5447178D+01
EXPONENTS  0.8245472D+00 0.1831916D+00 0.5447178D+01 0.8245472D+00 0.1831916D+00
MO    1     MO 0.0        OCC NO =    2.0000000  ORB. ENERGY =  -20.539344
 -0.10132812D-03 -0.14216754D-03 -0.87221730D-04  0.24886127D-03 -0.23729923D-03
 -0.97087360D-04 -0.50306480D-04 -0.90400387D-04 -0.46841580D-04 -0.23026789D-03
 -0.11931489D-03  0.14837881D-02  0.81115310D-03 -0.13847062D-02  0.92698136D-03
  0.24673442D-03  0.34617860D-03  0.21238530D-03 -0.11193133D-02  0.10673102D-02
 -0.26906493D-02 -0.13941783D-02  0.31041909D-03  0.16084578D-03 -0.14797859D-02
 -0.76676118D-03  0.31461883D-02 -0.52356277D-02 -0.74884364D-03 -0.22630356D-02
  0.31575848D+01  0.45246147D+01  0.28777827D+01 -0.12996620D+00  0.12303608D+00
  0.17428757D-01  0.88009319D-02  0.99425685D-04  0.50206605D-04  0.87672571D-02
  0.44271680D-02 -0.19853175D-01 -0.60855278D-02  0.11980329D-04 -0.30370152D-02
 -0.13424060D-03 -0.19103850D-03 -0.12039558D-03  0.39228428D-03 -0.36285606D-03
 -0.20571154D-02 -0.10669680D-02 -0.20750056D-02 -0.10762472D-02  0.81387220D-04
  0.42213267D-04  0.10675470D-02  0.26166750D-02  0.19185141D-02  0.32925300D-03
  0.99470835D-03  0.13973710D-02  0.35648636D-03 -0.10818158D-02 -0.15197400D-02
 -0.29706924D-03  0.23527684D-04  0.33051802D-04 -0.14418991D-03 -0.46962256D-03
 -0.65972799D-03 -0.49844530D-03  0.34603338D-03  0.48610932D-03  0.71253604D-03
MO    2     MO 0.0        OCC NO =    2.0000000  ORB. ENERGY =  -15.605297
 -0.32097406D-03 -0.45033988D-03 -0.27628967D-03  0.88204658D-03 -0.84106689D-03
  0.52662831D-03  0.27287607D-03  0.66042093D-03  0.34220163D-03 -0.34604127D-03
 -0.17930365D-03  0.10331970D-02 -0.10229913D-02  0.32944041D-03 -0.33942872D-03
 -0.25316899D-03 -0.35520657D-03 -0.21792408D-03  0.91679955D-03 -0.87420524D-03
  0.52312466D-04  0.27106062D-04 -0.45784137D-03 -0.23723364D-03  0.24751109D-03
  0.12824956D-03  0.44380524D-02  0.14082379D-02 -0.35274046D-02  0.20564322D-02
  0.51742455D-04  0.74143591D-04  0.47157418D-04  0.31208261D-03 -0.29544159D-03
 -0.10222123D-02 -0.51618262D-03 -0.25611086D-02 -0.12932731D-02  0.58131284D-03
  0.29354330D-03  0.31878273D-03  0.92782926D-04  0.17494502D-02 -0.65763012D-03
  0.25868882D+01  0.36814142D+01  0.23200873D+01 -0.10754021D+00  0.99472803D-01
 -0.16191284D-02 -0.83979647D-03  0.29975146D-02  0.15547267D-02 -0.11103919D-02
 -0.57592912D-03 -0.19291514D-01  0.15598349D-02 -0.25331830D-02  0.16270939D-02
  0.41159784D-03  0.57821459D-03  0.15065792D-02 -0.12421101D-04 -0.17449221D-04
  0.17027364D-02 -0.83377402D-04 -0.11712897D-03 -0.34623815D-03  0.17193550D-03
  0.24153580D-03  0.26507922D-03 -0.45435484D-03 -0.63827981D-03 -0.20779330D-03
MO    3     MO 0.0        OCC NO =    2.0000000  ORB. ENERGY =  -11.431712
 -0.20570534D-02 -0.28861309D-02 -0.17706807D-02  0.17754718D-02 -0.16929837D-02
  0.40464935D-03  0.20967183D-03  0.82314745D-03  0.42651949D-03  0.45136432D-03
  0.23387751D-03  0.49068179D-02 -0.13063583D-02 -0.28919041D-02  0.93377133D-04
  0.20653447D+01  0.28977640D+01  0.17778178D+01 -0.71119312D-01  0.67815124D-01
 -0.88657891D-04 -0.45938693D-04  0.10748265D-02  0.55692870D-03 -0.23903871D-03
 -0.12385954D-03 -0.10974021D-01 -0.34867521D-02 -0.28722289D-02 -0.62545403D-03
  0.67744981D-03  0.97074174D-03  0.61741917D-03 -0.25217086D-02  0.23872448D-02
 -0.10682280D-02 -0.53941899D-03 -0.19898817D-02 -0.10048229D-02  0.22112602D-03
  0.11166115D-03 -0.18870135D-02 -0.18065807D-02  0.11653082D-02 -0.13417089D-02
  0.10355983D-03  0.14737654D-03  0.92879099D-04  0.36041139D-03 -0.33337421D-03
 -0.98342008D-03 -0.51007239D-03 -0.35789117D-02 -0.18562811D-02  0.10949077D-02
  0.56789792D-03  0.17462690D-02  0.21672569D-02  0.15740597D-02  0.31608468D-03
  0.48986536D-03  0.68816516D-03  0.54846066D-03 -0.11005603D-02 -0.15460723D-02
 -0.22887366D-03 -0.66851950D-03 -0.93913935D-03  0.81753431D-03 -0.70632397D-03
 -0.99224724D-03  0.23533231D-03 -0.44699904D-03 -0.62794635D-03  0.46002244D-03
MO    4     MO 0.0        OCC NO =    2.0000000  ORB. ENERGY =  -11.258650
  0.20665216D+01  0.28994153D+01  0.17788309D+01 -0.77864589D-01  0.74247017D-01
 -0.14694944D-03 -0.76142859D-04  0.55946611D-03  0.28989120D-03  0.99708655D-03
  0.51664722D-03 -0.19569327D-01  0.95010657D-03  0.28386578D-03 -0.30356590D-03
  0.86423720D-03  0.12125605D-02  0.74392244D-03  0.11844458D-02 -0.11294167D-02
 -0.49851886D-04 -0.25831096D-04  0.52750310D-04  0.27332934D-04  0.15098752D-03
  0.78235215D-04  0.37484476D-02  0.82474405D-03  0.25318796D-02 -0.54856618D-03
  0.11047960D-03  0.15831011D-03  0.10068970D-03  0.14213789D-04 -0.13455874D-04
 -0.84497413D-03 -0.42668333D-03  0.24945918D-03  0.12596844D-03 -0.59392623D-03
 -0.29991264D-03 -0.52178595D-03 -0.26596009D-03 -0.70346162D-03  0.16458038D-03
 -0.18567735D-03 -0.26423841D-03 -0.16652736D-03  0.10674909D-02 -0.98741030D-03
  0.76414297D-04  0.39633951D-04 -0.21435593D-02 -0.11118040D-02  0.69182784D-03
  0.35883168D-03  0.84226940D-03 -0.31573409D-03  0.70349166D-03 -0.39770695D-03
 -0.54924770D-05 -0.77158575D-05  0.36404927D-03 -0.59909112D-04 -0.84160603D-04
  0.55047933D-04 -0.34723979D-03 -0.48780410D-03  0.39710827D-02 -0.69497350D-03
 -0.97630205D-03  0.35515329D-02 -0.20954280D-03 -0.29436671D-03  0.35271690D-02
MO    5     MO 0.0        OCC NO =    2.0000000  ORB. ENERGY =   -1.509608
 -0.51046876D-01 -0.71620879D-01 -0.43940387D-01 -0.19180501D-01  0.18289379D-01
 -0.26360840D-01 -0.13659050D-01 -0.32193829D-01 -0.16681453D-01  0.94032100D-03
  0.48723377D-03  0.31875561D-02 -0.12293801D-02  0.54158373D-02 -0.17275817D-02
 -0.28055987D+00 -0.39363709D+00 -0.24150173D+00 -0.11319321D+00  0.10793427D+00
 -0.17322243D+00 -0.89756391D-01 -0.56818963D-01 -0.29441135D-01 -0.59889157D-01
 -0.31031977D-01  0.30883134D-01  0.12179027D-01  0.71988695D-02  0.35758062D-02
 -0.61084865D+00 -0.87530660D+00 -0.55671972D+00 -0.22335984D+00  0.21144973D+00
  0.41226397D+00  0.20817934D+00  0.38970035D-02  0.19678548D-02  0.20575151D+00
  0.10389755D+00  0.20819422D+00  0.45043566D-01 -0.29582738D-02  0.24153527D-01
 -0.20136472D+00 -0.28656319D+00 -0.18059680D+00 -0.74003528D-01  0.68451964D-01
 -0.56863339D-01 -0.29493418D-01  0.76586263D-01  0.39723145D-01 -0.50609257D-01
 -0.26249601D-01  0.56192721D-01 -0.13666199D-01  0.23153341D-02 -0.63791692D-02
  0.11026931D-01  0.15490684D-01 -0.96366735D-03  0.15559804D-01  0.21858486D-01
  0.19815026D-03  0.41212518D-02  0.57895539D-02 -0.17498782D-02  0.48281871D-02
  0.67826600D-02  0.33485751D-04  0.31335903D-02  0.44020824D-02 -0.27690067D-02
MO    6     MO 0.0        OCC NO =    2.0000000  ORB. ENERGY =   -1.366349
 -0.35554386D-01 -0.49884274D-01 -0.30604684D-01 -0.14381253D-01  0.13713103D-01
  0.58748168D-02  0.30440766D-02 -0.27268290D-01 -0.14129251D-01  0.14263188D-01
  0.73905684D-02  0.60928772D-02  0.46109931D-02 -0.23661341D-02  0.30628888D-02
 -0.70995601D-01 -0.99609765D-01 -0.61111951D-01 -0.32132484D-01  0.30639616D-01
  0.21471334D+00  0.11125519D+00 -0.13669674D+00 -0.70830351D-01  0.16272750D+00
  0.84318366D-01  0.40746856D-02 -0.14812856D-02  0.65332439D-02 -0.33653674D-02
  0.33170400D+00  0.47531038D+00  0.30231083D+00  0.12407216D+00 -0.11745633D+00
 -0.14352120D+00 -0.72473348D-01 -0.52030702D-01 -0.26273743D-01 -0.50356097D-01
 -0.25428124D-01 -0.11644232D+00 -0.16704095D-01 -0.77346491D-02 -0.53869248D-02
 -0.52921250D+00 -0.75312511D+00 -0.47463173D+00 -0.19183088D+00  0.17744020D+00
  0.18457131D-01  0.95731960D-02  0.58610471D-01  0.30399606D-01  0.10404810D-01
  0.53966830D-02  0.17321051D+00 -0.38653845D-02  0.14017537D-01 -0.43049524D-02
  0.41792911D-01  0.58710877D-01  0.99545670D-03  0.48146027D-01  0.67635765D-01
  0.43767178D-03  0.36414111D-02  0.51154714D-02 -0.26527249D-03  0.45446642D-02
  0.63843657D-02 -0.14395363D-02  0.26499999D-02  0.37227323D-02  0.62006791D-03
MO    7     MO 0.0        OCC NO =    2.0000000  ORB. ENERGY =   -1.169604
 -0.42209286D+00 -0.59221374D+00 -0.36333122D+00 -0.14511579D+00  0.13837374D+00
 -0.11872506D-01 -0.61518201D-02 -0.12615162D-01 -0.65366325D-02  0.32752523D-01
  0.16970944D-01  0.11914362D+00 -0.33879655D-02  0.20635067D-02  0.29158468D-02
 -0.11255353D+00 -0.15791726D+00 -0.96884397D-01 -0.48377241D-01  0.46129644D-01
  0.15404297D+00  0.79818421D-01  0.19087188D+00  0.98901572D-01  0.73514490D-02
  0.38092037D-02  0.21648022D-01  0.93327958D-02  0.37732627D-02  0.34193455D-02
  0.12404007D+00  0.17774139D+00  0.11304855D+00  0.49432563D-01 -0.46796696D-01
  0.24513215D-01  0.12378344D-01  0.11174334D+00  0.56426603D-01 -0.26507626D-01
 -0.13385454D-01 -0.42003756D-01  0.19012063D-02  0.82988474D-02 -0.21279724D-02
  0.12317921D+00  0.17529698D+00  0.11047502D+00  0.42394533D-01 -0.39214198D-01
  0.37251371D-01  0.19321241D-01  0.15516638D+00  0.80480448D-01 -0.53553713D-01
 -0.27776808D-01 -0.47249143D-01  0.32614494D-02  0.58126131D-02 -0.21666723D-02
 -0.22337720D-01 -0.31380134D-01 -0.31296093D-02 -0.10813743D-01 -0.15191197D-01
 -0.10821608D-02  0.52523071D-01  0.73784657D-01 -0.29445013D-02  0.51306074D-01
  0.72075015D-01  0.77609506D-04  0.44278474D-01  0.62202608D-01 -0.31532652D-02
MO    8     MO 0.0        OCC NO =    2.0000000  ORB. ENERGY =   -0.955693
  0.11205066D+00  0.15721171D+00  0.96451530D-01  0.33781079D-01 -0.32211618D-01
 -0.48906348D-01 -0.25341159D-01 -0.18418557D+00 -0.95437014D-01  0.20039351D-01
  0.10383527D-01 -0.45628208D-01  0.28125845D-02 -0.46286851D-02 -0.68642477D-03
 -0.26316872D+00 -0.36923659D+00 -0.22653169D+00 -0.11564984D+00  0.11027677D+00
  0.15069895D+00  0.78085690D-01 -0.20625552D+00 -0.10687271D+00  0.15068794D+00
  0.78079988D-01  0.65168874D-01  0.15722827D-01  0.42851644D-02  0.72099763D-02
  0.19496487D+00  0.27937204D+00  0.17768851D+00  0.75698432D-01 -0.71662003D-01
  0.25472564D+00  0.12862782D+00 -0.14800987D+00 -0.74739970D-01  0.17594480D+00
  0.88846169D-01 -0.75847059D-01  0.23997387D-01 -0.16741665D-01  0.16827812D-01
  0.10119976D+00  0.14401791D+00  0.90762436D-01  0.37748454D-01 -0.34916657D-01
 -0.36622871D+00 -0.18995256D+00  0.70158319D+00  0.36389151D+00 -0.49558948D+00
 -0.25704835D+00 -0.38924879D-01 -0.35919904D-01  0.56971927D-01 -0.44840893D-01
 -0.50752108D-01 -0.71296801D-01 -0.98034637D-02 -0.54997896D-01 -0.77261303D-01
 -0.80955922D-02 -0.23524558D-01 -0.33047410D-01 -0.41959976D-02 -0.16027214D-01
 -0.22515106D-01 -0.50845758D-02 -0.28024860D-01 -0.39369456D-01 -0.66675493D-02
MO    9     MO 0.0        OCC NO =    2.0000000  ORB. ENERGY =   -0.884916
  0.69221520D-01  0.97120655D-01  0.59584848D-01  0.21117147D-01 -0.20136049D-01
 -0.26052229D-01 -0.13499141D-01 -0.18301817D+00 -0.94832120D-01  0.31157255D-02
  0.16144345D-02 -0.29552482D-01  0.43167499D-03 -0.12495959D-01  0.21449112D-02
 -0.19822441D-01 -0.27811705D-01 -0.17062861D-01 -0.36597291D-02  0.34896989D-02
  0.14580916D+00  0.75552015D-01  0.16960732D+00  0.87883193D-01 -0.25708425D-01
 -0.13320996D-01  0.11168382D-01  0.92347582D-02  0.12962788D-01 -0.29503767D-02
 -0.88170510D-01 -0.12634264D+00 -0.80357485D-01 -0.28699213D-01  0.27168900D-01
 -0.11405453D+00 -0.57593675D-01  0.24941226D+00  0.12594474D+00 -0.19424671D+00
 -0.98088010D-01  0.39506900D-01 -0.81969239D-02  0.22538053D-01 -0.16489216D-01
  0.73305627D-02  0.10432162D-01  0.65745190D-02  0.32329031D-02 -0.29903786D-02
  0.96016387D+00  0.49801005D+00  0.44538575D+00  0.23100909D+00  0.16733569D+00
  0.86792326D-01 -0.20169182D-02  0.90179107D-01  0.43478178D-01  0.14662356D-01
 -0.76379714D-01 -0.10729858D+00 -0.13973603D-01  0.83659096D-01  0.11752469D+00
  0.13378522D-01 -0.22778695D-01 -0.31999619D-01 -0.50517565D-02 -0.66753475D-02
 -0.93775596D-02  0.97823273D-03 -0.23712489D-01 -0.33311416D-01 -0.20566843D-02
MO   10     MO 0.0        OCC NO =    2.0000000  ORB. ENERGY =   -0.802097
 -0.47418518D-01 -0.66530141D-01 -0.40817150D-01 -0.13622693D-01  0.12989786D-01
  0.45806652D+00  0.23735030D+00  0.51032568D-01  0.26442875D-01  0.26193691D-01
  0.13572440D-01  0.26801888D-01  0.32851736D-01 -0.72621985D-02  0.54387937D-02
  0.14467757D+00  0.20298861D+00  0.12453629D+00  0.63035617D-01 -0.60106995D-01
  0.14800087D+00  0.76687666D-01 -0.36529432D+00 -0.18927976D+00  0.12737362D+00
  0.65999512D-01 -0.48780628D-01 -0.11175129D-01 -0.32834335D-01 -0.10681857D-02
 -0.22202058D+00 -0.31814113D+00 -0.20234674D+00 -0.82229246D-01  0.77844579D-01
 -0.74052602D+00 -0.37394056D+00 -0.64564265D+00 -0.32602768D+00 -0.25576508D+00
 -0.12915270D+00  0.93160395D-01 -0.73656129D-01 -0.58797263D-01 -0.27350375D-01
 -0.91653521D-02 -0.13043261D-01 -0.82200759D-02 -0.55906980D-02  0.51712975D-02
 -0.23087176D-03 -0.11974670D-03  0.27783866D+00  0.14410712D+00 -0.23985282D+00
 -0.12440493D+00  0.33467012D-02  0.87253200D-02  0.33787323D-01 -0.23305474D-01
 -0.22725484D-01 -0.31924867D-01 -0.31080076D-02 -0.69672105D-02 -0.97875701D-02
 -0.19233328D-02 -0.14231634D-02 -0.19992666D-02  0.32753344D-03  0.74622431D-01
  0.10482994D+00  0.23052645D-01 -0.91576206D-02 -0.12864669D-01  0.11404454D-02
MO   11     MO 0.0        OCC NO =    2.0000000  ORB. ENERGY =   -0.768384
  0.11667597D-01  0.16370121D-01  0.10043293D-01  0.64678286D-02 -0.61673347D-02
 -0.24387881D+00 -0.12636748D+00  0.29640890D+00  0.15358630D+00  0.38098156D+00
  0.19740820D+00  0.17834080D-02 -0.19943917D-01  0.18785769D-01  0.29980379D-01
  0.53865555D-01  0.75575602D-01  0.46366664D-01  0.25102394D-01 -0.23936142D-01
 -0.34269198D-01 -0.17756820D-01 -0.71928858D-01 -0.37270430D-01  0.32947618D+00
  0.17072034D+00 -0.17410462D-01 -0.16462824D-01 -0.55739390D-02  0.24069354D-01
 -0.91439680D-01 -0.13102715D+00 -0.83336966D-01 -0.34928018D-01  0.33065569D-01
 -0.61614483D+00 -0.31113227D+00 -0.85455178D-01 -0.43151971D-01  0.31873855D+00
  0.16095217D+00  0.37341803D-01 -0.63396930D-01 -0.62043552D-02  0.30085240D-01
 -0.12166161D-01 -0.17313728D-01 -0.10911394D-01 -0.47796391D-02  0.44210822D-02
 -0.35067829D-01 -0.18188699D-01  0.38730640D+00  0.20088496D+00  0.17767644D+00
  0.92155784D-01  0.56078914D-02 -0.18164172D-03  0.42224455D-01  0.21064228D-01
 -0.23558589D-01 -0.33095217D-01 -0.52033846D-02  0.50372831D-02  0.70763990D-02
  0.33742203D-03  0.83359592D-01  0.11710395D+00  0.30943640D-01 -0.55777396D-01
 -0.78356349D-01 -0.18640799D-01 -0.83649133D-02 -0.11751070D-01 -0.23320412D-02
MO   12     MO 0.0        OCC NO =    2.0000000  ORB. ENERGY =   -0.725624
 -0.82659259D-02 -0.11597436D-01 -0.71151853D-02 -0.16819973D-02  0.16038521D-02
 -0.20387753D+00 -0.10564054D+00  0.43153757D+00  0.22360415D+00 -0.34086317D+00
 -0.17662059D+00  0.11854746D-01 -0.22220909D-01  0.37216211D-01 -0.30287937D-01
  0.24090838D-01  0.33800442D-01  0.20737033D-01  0.28804541D-02 -0.27466289D-02
 -0.49296543D-01 -0.25543341D-01 -0.30760183D+00 -0.15938600D+00 -0.11058593D+00
 -0.57300855D-01 -0.18074634D-01 -0.14420050D-02 -0.26679149D-01 -0.12471879D-01
  0.33992061D-01  0.48708424D-01  0.30979934D-01  0.10957593D-01 -0.10373307D-01
  0.27412407D+00  0.13842337D+00 -0.43435595D+00 -0.21933505D+00 -0.14070585D+00
 -0.71051688D-01 -0.15853558D-01  0.29142519D-01 -0.41074311D-01 -0.15772849D-01
 -0.39195768D-01 -0.55779704D-01 -0.35153280D-01 -0.14547777D-01  0.13456438D-01
  0.29281117D+00  0.15187294D+00  0.24310859D+00  0.12609360D+00 -0.33806152D+00
 -0.17534303D+00  0.16285702D-01  0.32008727D-01  0.25819632D-01 -0.37419487D-01
 -0.38557643D-01 -0.54165959D-01 -0.11597897D-01  0.19799357D-01  0.27814230D-01
  0.48685432D-02 -0.23076877D-02 -0.32418505D-02 -0.14452343D-02 -0.47317867D-01
 -0.66472362D-01 -0.13465692D-01  0.92906161D-01  0.13051501D+00  0.27051991D-01
MO   13     MO 0.0        OCC NO =    2.0000000  ORB. ENERGY =   -0.698272
  0.51018226D-02  0.71580681D-02  0.43915725D-02  0.15168061D-02 -0.14463356D-02
  0.27299263D+00  0.14145300D+00  0.12318792D+00  0.63830663D-01  0.18182561D+00
  0.94214184D-01 -0.22842852D-02  0.19362748D-01  0.12477377D-01  0.12291254D-01
 -0.32772973D-01 -0.45981837D-01 -0.28210485D-01 -0.26098697D-01  0.24886157D-01
 -0.49450172D+00 -0.25622945D+00 -0.14691156D+00 -0.76123231D-01 -0.11997582D+00
 -0.62166293D-01 -0.22943562D-02 -0.10839933D-01 -0.18354873D-01  0.88843247D-02
  0.18982185D+00  0.27200243D+00  0.17300123D+00  0.71147102D-01 -0.67353361D-01
  0.11724855D+01  0.59206549D+00 -0.38179762D+00 -0.19279487D+00  0.87269650D+00
  0.44068219D+00 -0.80297903D-01  0.13009949D+00 -0.36498252D-01  0.93839030D-01
  0.32505036D-01  0.46258088D-01  0.29152602D-01  0.63412458D-02 -0.58655410D-02
  0.31313468D+00  0.16241417D+00  0.24667839D-01  0.12794516D-01  0.17227599D+00
  0.89354719D-01 -0.25764624D-01  0.28651923D-01 -0.64698378D-02  0.20797758D-01
 -0.24332023D-01 -0.34181741D-01 -0.10393337D-01  0.38573588D-01  0.54188358D-01
  0.10964313D-01  0.26750624D-01  0.37579403D-01  0.11933557D-01  0.41237824D-01
  0.57931089D-01  0.18418499D-01 -0.25379983D-01 -0.35653919D-01 -0.13595670D-01
MO   14     MO 0.0        OCC NO =    2.0000000  ORB. ENERGY =   -0.659924
  0.62996924D-02  0.88387289D-02  0.54226809D-02  0.31276329D-02 -0.29823238D-02
 -0.10835490D+00 -0.56144833D-01 -0.41219572D-02 -0.21358204D-02  0.41942000D+00
  0.21732535D+00 -0.31059665D-02 -0.11220201D-01 -0.19467548D-03  0.41139993D-01
 -0.26242072D-02 -0.36818712D-02 -0.22588783D-02 -0.87396730D-03  0.83336297D-03
  0.15586685D+00  0.80763478D-01 -0.54850274D-01 -0.28421045D-01 -0.28677674D+00
 -0.14859533D+00  0.23655014D-02  0.19268683D-01 -0.11203608D-01 -0.33717028D-01
 -0.78602729D-02 -0.11263262D-01 -0.71637531D-02 -0.28422261D-02  0.26906715D-02
  0.37383246D+00  0.18877274D+00 -0.29255954D+00 -0.14773266D+00 -0.81693096D+00
 -0.41252247D+00  0.44073222D-02  0.40432426D-01 -0.33206006D-01 -0.88540820D-01
  0.88708545D-03  0.12624160D-02  0.79559515D-03 -0.22234671D-02  0.20566680D-02
  0.19870662D+00  0.10306355D+00 -0.36229147D+00 -0.18791042D+00 -0.54511729D+00
 -0.28273704D+00 -0.26829144D-02  0.24261400D-01 -0.44821327D-01 -0.64910870D-01
  0.93335018D-02  0.13111747D-01  0.23829629D-02 -0.37237435D-02 -0.52311324D-02
 -0.20745654D-02  0.67287971D-01  0.94526458D-01  0.25800836D-01 -0.23570960D-01
 -0.33112595D-01 -0.87590747D-02 -0.51984145D-01 -0.73027571D-01 -0.18398744D-01
MO   15     MO 0.0        OCC NO =    2.0000000  ORB. ENERGY =   -0.546711
  0.58412530D-01  0.81955195D-01  0.50280632D-01  0.97138491D-02 -0.92625458D-02
  0.23660408D+00  0.12259802D+00  0.24830397D+00  0.12866040D+00  0.59340037D-01
  0.30747446D-01 -0.55179751D-01  0.24773756D-01  0.30709822D-01  0.76837864D-02
  0.34886883D-01  0.48947740D-01  0.30030107D-01  0.95476265D-02 -0.91040458D-02
 -0.11702999D+00 -0.60639890D-01 -0.21574313D+00 -0.11178878D+00  0.40229238D-01
  0.20845055D-01 -0.28218041D-01 -0.83205262D-02  0.26881682D-01 -0.12715300D-01
 -0.59431093D-02 -0.85160911D-02 -0.54164745D-02 -0.38271030D-02  0.36230324D-02
  0.28037916D+00  0.14158198D+00  0.18788365D+01  0.94874881D+00 -0.38982001D+00
 -0.19684591D+00  0.20734674D-02  0.33092250D-01  0.21805097D+00 -0.42173930D-01
 -0.94168757D-01 -0.13401206D+00 -0.84456584D-01 -0.14837746D-01  0.13724654D-01
 -0.11078647D+00 -0.57461832D-01  0.21430088D+00  0.11115185D+00 -0.31427950D+00
 -0.16300795D+00  0.83244056D-01 -0.19471816D-01  0.40730231D-01 -0.50599601D-01
 -0.10478202D-01 -0.14719827D-01 -0.89993845D-02 -0.13188999D-01 -0.18527969D-01
 -0.11853034D-02  0.14916358D-01  0.20954570D-01  0.10763724D-01  0.23536030D-01
  0.33063526D-01  0.19424617D-01 -0.10487360D-02 -0.14732692D-02  0.89023474D-02
MO   16     MO 0.0        OCC NO =    2.0000000  ORB. ENERGY =   -0.532129
  0.10373146D-01  0.14553953D-01  0.89290487D-02  0.30955134D-02 -0.29516965D-02
  0.32110991D-01  0.16638530D-01  0.55328218D-01  0.28668695D-01  0.18812009D-01
  0.97475713D-02 -0.70069441D-02  0.85227428D-02  0.35745007D-02  0.79439673D-02
  0.46802063D-02  0.65665230D-02  0.40286516D-02 -0.88789455D-03  0.84664316D-03
  0.12611726D-01  0.65348522D-02 -0.70827085D-01 -0.36699539D-01 -0.64092516D-01
 -0.33209976D-01 -0.70668679D-02  0.62332468D-02 -0.16476551D-02 -0.18194312D-01
 -0.50445274D-02 -0.72284813D-02 -0.45975183D-02 -0.24999217D-02  0.23666196D-02
  0.68434992D+00  0.34557354D+00 -0.25071108D+00 -0.12660061D+00 -0.12572633D+01
 -0.63487539D+00  0.25141815D-02  0.84377093D-01 -0.33183426D-01 -0.15431140D+00
 -0.12351985D-02 -0.17578175D-02 -0.11078053D-02  0.55716830D-02 -0.51537089D-02
 -0.36421360D+00 -0.18890737D+00  0.44746664D+00  0.23208839D+00  0.81514791D+00
  0.42279434D+00  0.96256057D-02 -0.57103856D-01  0.66537330D-01  0.12030122D+00
 -0.21806462D-02 -0.30633820D-02 -0.18503151D-02 -0.15975490D-02 -0.22442444D-02
  0.96981836D-03  0.55949645D-02  0.78598324D-02  0.39029818D-02  0.61933297D-03
  0.87004187D-03 -0.69984217D-02  0.22252591D-03  0.31260545D-03  0.74215917D-02
END DATA
 TOTAL ENERGY =    -8079.580794105707 THE VIRIAL(-V/T)=  39.95837139
