 STEP 4
GAUSSIAN             16 MOL ORBITALS     75 PRIMITIVES        9 NUCLEI
  C    1    (CENTRE  1)   8.93936644  2.43497447  0.87680080  CHARGE =  6.0
  C    2    (CENTRE  2)   7.36056073  0.06262741  0.97741737  CHARGE =  6.0
  O    3    (CENTRE  3)   5.24024834 -0.02219294 -0.04117146  CHARGE =  8.0
  N    4    (CENTRE  4)   8.33270955 -1.88335775  2.22964250  CHARGE =  7.0
  H    5    (CENTRE  5)   7.37283073 -3.29126796  2.58240901  CHARGE =  1.0
  H    6    (CENTRE  6)   9.87025498 -1.86191691  2.89911955  CHARGE =  1.0
  H    7    (CENTRE  7)   8.51295919  3.38530451  2.36314787  CHARGE =  1.0
  H    8    (CENTRE  8)  10.67377408  1.97476002  0.82831987  CHARGE =  1.0
  H    9    (CENTRE  9)   8.40437553  3.61099072 -0.47750167  CHARGE =  1.0
CENTRE ASSIGNMENTS    1  1  1  1  1  1  1  1  1  1  1  1  1  1  1  2  2  2  2  2
CENTRE ASSIGNMENTS    2  2  2  2  2  2  2  2  2  2  3  3  3  3  3  3  3  3  3  3
CENTRE ASSIGNMENTS    3  3  3  3  3  4  4  4  4  4  4  4  4  4  4  4  4  4  4  4
CENTRE ASSIGNMENTS    5  5  5  6  6  6  7  7  7  8  8  8  9  9  9
TYPE ASSIGNMENTS      1  1  1  1  1  2  2  3  3  4  4  1  2  3  4  1  1  1  1  1
TYPE ASSIGNMENTS      2  2  3  3  4  4  1  2  3  4  1  1  1  1  1  2  2  3  3  4
TYPE ASSIGNMENTS      4  1  2  3  4  1  1  1  1  1  2  2  3  3  4  4  1  2  3  4
TYPE ASSIGNMENTS      1  1  1  1  1  1  1  1  1  1  1  1  1  1  1
EXPONENTS  0.1722560D+03 0.2591090D+02 0.5533350D+01 0.3664980D+01 0.7705450D+00
EXPONENTS  0.3664980D+01 0.7705450D+00 0.3664980D+01 0.7705450D+00 0.3664980D+01
EXPONENTS  0.7705450D+00 0.1958570D+00 0.1958570D+00 0.1958570D+00 0.1958570D+00
EXPONENTS  0.1722560D+03 0.2591090D+02 0.5533350D+01 0.3664980D+01 0.7705450D+00
EXPONENTS  0.3664980D+01 0.7705450D+00 0.3664980D+01 0.7705450D+00 0.3664980D+01
EXPONENTS  0.7705450D+00 0.1958570D+00 0.1958570D+00 0.1958570D+00 0.1958570D+00
EXPONENTS  0.3220370D+03 0.4843080D+02 0.1042060D+02 0.7402940D+01 0.1576200D+01
EXPONENTS  0.7402940D+01 0.1576200D+01 0.7402940D+01 0.1576200D+01 0.7402940D+01
EXPONENTS  0.1576200D+01 0.3736840D+00 0.3736840D+00 0.3736840D+00 0.3736840D+00
EXPONENTS  0.2427660D+03 0.3648510D+02 0.7814490D+01 0.5425220D+01 0.1149150D+01
EXPONENTS  0.5425220D+01 0.1149150D+01 0.5425220D+01 0.1149150D+01 0.5425220D+01
EXPONENTS  0.1149150D+01 0.2832050D+00 0.2832050D+00 0.2832050D+00 0.2832050D+00
EXPONENTS  0.5447178D+01 0.8245472D+00 0.1831916D+00 0.5447178D+01 0.8245472D+00
EXPONENTS  0.1831916D+00 0.5447178D+01 0.8245472D+00 0.1831916D+00 0.5447178D+01
EXPONENTS  0.8245472D+00 0.1831916D+00 0.5447178D+01 0.8245472D+00 0.1831916D+00
MO    1     MO 0.0        OCC NO =    2.0000000  ORB. ENERGY =  -20.570580
 -0.10157310D-03 -0.14251126D-03 -0.87432602D-04  0.24898968D-03 -0.23742168D-03
 -0.97947760D-04 -0.50752303D-04 -0.91022956D-04 -0.47164168D-04 -0.23019228D-03
 -0.11927571D-03  0.14847482D-02  0.81068529D-03 -0.13848124D-02  0.92654169D-03
  0.24615474D-03  0.34536528D-03  0.21188632D-03 -0.11177350D-02  0.10658052D-02
 -0.26872648D-02 -0.13924247D-02  0.31106214D-03  0.16117898D-03 -0.14787565D-02
 -0.76622782D-03  0.31447506D-02 -0.52345509D-02 -0.75031722D-03 -0.22616763D-02
  0.31575704D+01  0.45245941D+01  0.28777696D+01 -0.12997876D+00  0.12304797D+00
  0.17316502D-01  0.87442473D-02  0.32740821D-04  0.16533006D-04  0.87576039D-02
  0.44222935D-02 -0.19848564D-01 -0.60798844D-02  0.15213742D-04 -0.30362994D-02
 -0.13372435D-03 -0.19030383D-03 -0.11993258D-03  0.39103420D-03 -0.36169977D-03
 -0.20573973D-02 -0.10671142D-02 -0.20741893D-02 -0.10758238D-02  0.80969277D-04
  0.41996492D-04  0.10658354D-02  0.26169663D-02  0.19176929D-02  0.32961066D-03
  0.99470681D-03  0.13973688D-02  0.35639713D-03 -0.10816953D-02 -0.15195707D-02
 -0.29722853D-03  0.23461134D-04  0.32958311D-04 -0.14404161D-03 -0.46965477D-03
 -0.65977323D-03 -0.49839328D-03  0.34588498D-03  0.48590085D-03  0.71222827D-03
MO    2     MO 0.0        OCC NO =    2.0000000  ORB. ENERGY =  -15.632247
 -0.32179230D-03 -0.45148791D-03 -0.27699400D-03  0.88354803D-03 -0.84249858D-03
  0.52636922D-03  0.27274182D-03  0.66046971D-03  0.34222690D-03 -0.34658776D-03
 -0.17958682D-03  0.10362869D-02 -0.10240672D-02  0.32843587D-03 -0.33926976D-03
 -0.25229181D-03 -0.35397585D-03 -0.21716902D-03  0.91626856D-03 -0.87369892D-03
  0.52689335D-04  0.27301340D-04 -0.45691907D-03 -0.23675574D-03  0.24713387D-03
  0.12805411D-03  0.44408951D-02  0.14068899D-02 -0.35320044D-02  0.20576290D-02
  0.52245154D-04  0.74863925D-04  0.47615571D-04  0.31053330D-03 -0.29397490D-03
 -0.10240685D-02 -0.51711993D-03 -0.25630004D-02 -0.12942284D-02  0.58107057D-03
  0.29342096D-03  0.31631918D-03  0.92362362D-04  0.17512810D-02 -0.65859497D-03
  0.25868903D+01  0.36814173D+01  0.23200892D+01 -0.10754046D+00  0.99473039D-01
 -0.17024266D-02 -0.88300089D-03  0.30251716D-02  0.15690716D-02 -0.11566708D-02
 -0.59993271D-03 -0.19293942D-01  0.15679110D-02 -0.25358100D-02  0.16317269D-02
  0.41321987D-03  0.58049321D-03  0.15062355D-02 -0.10989365D-04 -0.15437911D-04
  0.16984209D-02 -0.83716627D-04 -0.11760551D-03 -0.34651997D-03  0.17158290D-03
  0.24104047D-03  0.26546331D-03 -0.45468987D-03 -0.63875047D-03 -0.20771800D-03
MO    3     MO 0.0        OCC NO =    2.0000000  ORB. ENERGY =  -11.462236
 -0.20269989D-02 -0.28439633D-02 -0.17448103D-02  0.17750549D-02 -0.16925862D-02
  0.40357396D-03  0.20911461D-03  0.82089873D-03  0.42535430D-03  0.45149415D-03
  0.23394478D-03  0.49059596D-02 -0.13064197D-02 -0.28905252D-02  0.93284627D-04
  0.20653493D+01  0.28977705D+01  0.17778218D+01 -0.71112208D-01  0.67808350D-01
 -0.15968163D-03 -0.82740131D-04  0.10712961D-02  0.55509940D-03 -0.26388004D-03
 -0.13673125D-03 -0.10972012D-01 -0.34831089D-02 -0.28706521D-02 -0.62484418D-03
  0.68089324D-03  0.97567596D-03  0.62055747D-03 -0.25263469D-02  0.23916359D-02
 -0.10681879D-02 -0.53939871D-03 -0.19886102D-02 -0.10041808D-02  0.22039662D-03
  0.11129283D-03 -0.18888847D-02 -0.18116897D-02  0.11646617D-02 -0.13438391D-02
  0.10022503D-03  0.14263077D-03  0.89888241D-04  0.36288931D-03 -0.33566624D-03
 -0.98312140D-03 -0.50991748D-03 -0.35752867D-02 -0.18544009D-02  0.10930443D-02
  0.56693142D-03  0.17476850D-02  0.21650398D-02  0.15747363D-02  0.31495718D-03
  0.48918776D-03  0.68721327D-03  0.54846717D-03 -0.10999273D-02 -0.15451831D-02
 -0.22881985D-03 -0.66861897D-03 -0.93927907D-03  0.81687970D-03 -0.70588798D-03
 -0.99163475D-03  0.23494310D-03 -0.44725318D-03 -0.62830338D-03  0.45955829D-03
MO    4     MO 0.0        OCC NO =    2.0000000  ORB. ENERGY =  -11.285682
  0.20665212D+01  0.28994147D+01  0.17788305D+01 -0.77864663D-01  0.74247087D-01
 -0.20411954D-03 -0.10576594D-03  0.56655342D-03  0.29356353D-03  0.10168690D-02
  0.52689761D-03 -0.19568240D-01  0.95452216D-03  0.28233143D-03 -0.30516455D-03
  0.83363161D-03  0.11696196D-02  0.71757761D-03  0.11849495D-02 -0.11298970D-02
 -0.50599205D-04 -0.26218325D-04  0.52432349D-04  0.27168181D-04  0.15073400D-03
  0.78103855D-04  0.37484546D-02  0.82331192D-03  0.25324365D-02 -0.54875545D-03
  0.11074053D-03  0.15868402D-03  0.10092752D-03  0.14032637D-04 -0.13284382D-04
 -0.84587648D-03 -0.42713898D-03  0.24757002D-03  0.12501448D-03 -0.59429249D-03
 -0.30009759D-03 -0.52293866D-03 -0.26596174D-03 -0.70303570D-03  0.16414836D-03
 -0.18603874D-03 -0.26475272D-03 -0.16685148D-03  0.10685517D-02 -0.98839159D-03
  0.75125980D-04  0.38965738D-04 -0.21441384D-02 -0.11121044D-02  0.69184674D-03
  0.35884149D-03  0.84379781D-03 -0.31513009D-03  0.70424684D-03 -0.39809573D-03
 -0.51632884D-05 -0.72534118D-05  0.36394668D-03 -0.60281784D-04 -0.84684134D-04
  0.54975623D-04 -0.34918350D-03 -0.49053462D-03  0.39740380D-02 -0.69161605D-03
 -0.97158548D-03  0.35468041D-02 -0.20927487D-03 -0.29399032D-03  0.35273037D-02
MO    5     MO 0.0        OCC NO =    2.0000000  ORB. ENERGY =   -1.541270
 -0.49970161D-01 -0.70110202D-01 -0.43013567D-01 -0.18762377D-01  0.17890681D-01
 -0.26258395D-01 -0.13605967D-01 -0.31610454D-01 -0.16379173D-01  0.80265118D-03
  0.41589921D-03  0.30383703D-02 -0.12681614D-02  0.53965172D-02 -0.17380283D-02
 -0.27900873D+00 -0.39146079D+00 -0.24016654D+00 -0.11250618D+00  0.10727916D+00
 -0.17547866D+00 -0.90925470D-01 -0.55572095D-01 -0.28795062D-01 -0.61335704D-01
 -0.31781515D-01  0.30725700D-01  0.11985752D-01  0.70582049D-02  0.35970471D-02
 -0.61586663D+00 -0.88249703D+00 -0.56129304D+00 -0.22473674D+00  0.21275322D+00
  0.41164711D+00  0.20786785D+00  0.26756023D-02  0.13510886D-02  0.20652792D+00
  0.10428961D+00  0.21000445D+00  0.44688212D-01 -0.32194744D-02  0.24182846D-01
 -0.19462211D+00 -0.27696776D+00 -0.17454960D+00 -0.71518781D-01  0.66153616D-01
 -0.57392695D-01 -0.29767980D-01  0.75386135D-01  0.39100672D-01 -0.50537515D-01
 -0.26212391D-01  0.54106244D-01 -0.13617914D-01  0.21488084D-02 -0.63257925D-02
  0.10486094D-01  0.14730915D-01 -0.98664522D-03  0.14854887D-01  0.20868215D-01
  0.14771653D-03  0.40230736D-02  0.56516327D-02 -0.17326966D-02  0.46913993D-02
  0.65904999D-02  0.34502699D-04  0.30406831D-02  0.42715659D-02 -0.27496892D-02
MO    6     MO 0.0        OCC NO =    2.0000000  ORB. ENERGY =   -1.393975
 -0.36900969D-01 -0.51773585D-01 -0.31763802D-01 -0.14871295D-01  0.14180378D-01
  0.52222873D-02  0.27059639D-02 -0.27954531D-01 -0.14484832D-01  0.14339515D-01
  0.74301178D-02  0.63095200D-02  0.45601617D-02 -0.22381291D-02  0.30119495D-02
 -0.76480224D-01 -0.10730492D+00 -0.65833032D-01 -0.34377665D-01  0.32780486D-01
  0.21268383D+00  0.11020358D+00 -0.13836011D+00 -0.71692240D-01  0.16255262D+00
  0.84227752D-01  0.49961007D-02 -0.12404135D-02  0.65435346D-02 -0.32278536D-02
  0.32537544D+00  0.46624195D+00  0.29654305D+00  0.12140758D+00 -0.11493382D+00
 -0.13537223D+00 -0.68358392D-01 -0.51694364D-01 -0.26103904D-01 -0.46663042D-01
 -0.23563256D-01 -0.11453220D+00 -0.15691263D-01 -0.76473290D-02 -0.49859788D-02
 -0.53135188D+00 -0.75616967D+00 -0.47655046D+00 -0.19261666D+00  0.17816702D+00
  0.14448735D-01  0.74941534D-02  0.61203632D-01  0.31744606D-01  0.77940616D-02
  0.40425610D-02  0.17389057D+00 -0.45271866D-02  0.13964290D-01 -0.44999767D-02
  0.41694704D-01  0.58572917D-01  0.80592963D-03  0.47725725D-01  0.67045323D-01
  0.17183904D-03  0.37729193D-02  0.53002147D-02 -0.29768560D-03  0.46452168D-02
  0.65256225D-02 -0.14797509D-02  0.27415335D-02  0.38513192D-02  0.53459859D-03
MO    7     MO 0.0        OCC NO =    2.0000000  ORB. ENERGY =   -1.196991
 -0.42171722D+00 -0.59168671D+00 -0.36300788D+00 -0.14506717D+00  0.13832738D+00
 -0.13775420D-01 -0.71378283D-02 -0.12571448D-01 -0.65139818D-02  0.33029225D-01
  0.17114319D-01  0.11893162D+00 -0.35510249D-02  0.23249633D-02  0.28843110D-02
 -0.11375666D+00 -0.15960529D+00 -0.97920027D-01 -0.48907512D-01  0.46635279D-01
  0.15286799D+00  0.79209597D-01  0.19288878D+00  0.99946641D-01  0.64156310D-02
  0.33243031D-02  0.22098197D-01  0.94400137D-02  0.40498169D-02  0.34169415D-02
  0.12308251D+00  0.17636927D+00  0.11217584D+00  0.48860058D-01 -0.46254718D-01
  0.28603596D-01  0.14443847D-01  0.11487528D+00  0.58008129D-01 -0.25428727D-01
 -0.12840646D-01 -0.41843944D-01  0.24185022D-02  0.86514212D-02 -0.20033193D-02
  0.12424523D+00  0.17681404D+00  0.11143109D+00  0.42778019D-01 -0.39568916D-01
  0.37857964D-01  0.19635863D-01  0.15486456D+00  0.80323900D-01 -0.53064664D-01
 -0.27523152D-01 -0.47661561D-01  0.33065582D-02  0.57087031D-02 -0.21288249D-02
 -0.22368642D-01 -0.31423574D-01 -0.30579050D-02 -0.10765465D-01 -0.15123376D-01
 -0.10304379D-02  0.52660661D-01  0.73977945D-01 -0.28252108D-02  0.50868071D-01
  0.71459706D-01 -0.21453490D-03  0.44222842D-01  0.62124457D-01 -0.33020678D-02
MO    8     MO 0.0        OCC NO =    2.0000000  ORB. ENERGY =   -0.983145
  0.11260730D+00  0.15799269D+00  0.96930675D-01  0.33904029D-01 -0.32328855D-01
 -0.49163056D-01 -0.25474174D-01 -0.18415829D+00 -0.95422878D-01  0.19123466D-01
  0.99089546D-02 -0.45863755D-01  0.27729403D-02 -0.44744626D-02 -0.85011302D-03
 -0.26454487D+00 -0.37116739D+00 -0.22771626D+00 -0.11647917D+00  0.11106757D+00
  0.14562891D+00  0.75458616D-01 -0.20515986D+00 -0.10630499D+00  0.14790502D+00
  0.76638000D-01  0.65708054D-01  0.15704963D-01  0.42290055D-02  0.73308084D-02
  0.19646128D+00  0.28151631D+00  0.17905232D+00  0.75883552D-01 -0.71837252D-01
  0.27048396D+00  0.13658524D+00 -0.14703468D+00 -0.74247535D-01  0.18293116D+00
  0.92374043D-01 -0.76783903D-01  0.25995094D-01 -0.16621759D-01  0.17638040D-01
  0.10498694D+00  0.14940747D+00  0.94159023D-01  0.38908942D-01 -0.35990087D-01
 -0.36439709D+00 -0.18900255D+00  0.69860179D+00  0.36234514D+00 -0.49382957D+00
 -0.25613554D+00 -0.41067937D-01 -0.35862338D-01  0.56368137D-01 -0.44646249D-01
 -0.50867381D-01 -0.71458736D-01 -0.96618342D-02 -0.54521447D-01 -0.76591985D-01
 -0.74807175D-02 -0.23741810D-01 -0.33352607D-01 -0.43352052D-02 -0.15999209D-01
 -0.22475764D-01 -0.49592487D-02 -0.27991604D-01 -0.39322737D-01 -0.67152960D-02
MO    9     MO 0.0        OCC NO =    2.0000000  ORB. ENERGY =   -0.911214
  0.69695720D-01  0.97785978D-01  0.59993033D-01  0.21091755D-01 -0.20111836D-01
 -0.26698149D-01 -0.13833829D-01 -0.18630492D+00 -0.96535171D-01  0.25487395D-02
  0.13206468D-02 -0.30145860D-01  0.59225809D-03 -0.12560066D-01  0.21872968D-02
 -0.20410743D-01 -0.28637116D-01 -0.17569262D-01 -0.39583938D-02  0.37744877D-02
  0.15073404D+00  0.78103877D-01  0.17198502D+00  0.89115217D-01 -0.24516270D-01
 -0.12703273D-01  0.11756670D-01  0.96434663D-02  0.13600264D-01 -0.30310808D-02
 -0.89045650D-01 -0.12759666D+00 -0.81155077D-01 -0.28887342D-01  0.27346997D-01
 -0.12227896D+00 -0.61746733D-01  0.25783007D+00  0.13019546D+00 -0.20236177D+00
 -0.10218584D+00  0.40072527D-01 -0.92185289D-02  0.23434290D-01 -0.17416979D-01
  0.47299880D-02  0.67312709D-02  0.42421568D-02  0.22686195D-02 -0.20984332D-02
  0.95853059D+00  0.49716292D+00  0.44473867D+00  0.23067346D+00  0.16775468D+00
  0.87009647D-01 -0.52444616D-03  0.90544034D-01  0.43421557D-01  0.14977994D-01
 -0.75595410D-01 -0.10619679D+00 -0.13394659D-01  0.82772590D-01  0.11627932D+00
  0.12153011D-01 -0.23205043D-01 -0.32598553D-01 -0.53117864D-02 -0.66918819D-02
 -0.94007872D-02  0.93303691D-03 -0.23926889D-01 -0.33612606D-01 -0.20144792D-02
MO   10     MO 0.0        OCC NO =    2.0000000  ORB. ENERGY =   -0.832300
 -0.49119885D-01 -0.68917230D-01 -0.42281662D-01 -0.14108264D-01  0.13452797D-01
  0.43498515D+00  0.22539053D+00  0.60836651D-01  0.31522928D-01  0.37931791D-01
  0.19654617D-01  0.28209571D-01  0.31474588D-01 -0.67116821D-02  0.64486934D-02
  0.14536591D+00  0.20395438D+00  0.12512880D+00  0.63541955D-01 -0.60589809D-01
  0.16183471D+00  0.83855765D-01 -0.36603814D+00 -0.18966517D+00  0.14428739D+00
  0.74763500D-01 -0.48289219D-01 -0.11491051D-01 -0.32778838D-01 -0.47292031D-03
 -0.22668972D+00 -0.32483170D+00 -0.20660214D+00 -0.83489734D-01  0.79037854D-01
 -0.79453570D+00 -0.40121363D+00 -0.65973381D+00 -0.33314324D+00 -0.26350626D+00
 -0.13306174D+00  0.95111524D-01 -0.80467648D-01 -0.61137347D-01 -0.28649725D-01
 -0.87240072D-02 -0.12415181D-01 -0.78242495D-02 -0.54663289D-02  0.50562582D-02
 -0.65676885D-02 -0.34064757D-02  0.29956131D+00  0.15537404D+00 -0.24032462D+00
 -0.12464964D+00  0.31444832D-02  0.84319645D-02  0.36076256D-01 -0.23104763D-01
 -0.23851894D-01 -0.33507253D-01 -0.30469355D-02 -0.76671408D-02 -0.10770835D-01
 -0.21504287D-02  0.20150494D-02  0.28307509D-02  0.13848937D-02  0.70099719D-01
  0.98476416D-01  0.20374290D-01 -0.82798783D-02 -0.11631612D-01  0.14281362D-02
MO   11     MO 0.0        OCC NO =    2.0000000  ORB. ENERGY =   -0.796709
  0.15639652D-01  0.21943078D-01  0.13462378D-01  0.75333226D-02 -0.71833261D-02
 -0.26464944D+00 -0.13712992D+00  0.28191086D+00  0.14607404D+00  0.37873264D+00
  0.19624291D+00 -0.10938839D-02 -0.21526595D-01  0.18044934D-01  0.29142004D-01
  0.45981537D-01  0.64513997D-01  0.39580218D-01  0.22083136D-01 -0.21057158D-01
 -0.35624106D-01 -0.18458874D-01 -0.47020058D-01 -0.24363765D-01  0.32994646D+00
  0.17096402D+00 -0.13973998D-01 -0.15988895D-01 -0.32384490D-02  0.24767865D-01
 -0.81966316D-01 -0.11745243D+00 -0.74703062D-01 -0.31181382D-01  0.29518713D-01
 -0.60786525D+00 -0.30695137D+00 -0.41040890D-01 -0.20724260D-01  0.34261980D+00
  0.17301140D+00  0.33335676D-01 -0.63443578D-01 -0.21908694D-02  0.32747710D-01
 -0.10593396D-01 -0.15075518D-01 -0.95008374D-02 -0.41997396D-02  0.38846853D-02
 -0.42321366D-01 -0.21950905D-01  0.37242699D+00  0.19316743D+00  0.19267550D+00
  0.99935377D-01  0.48085658D-02 -0.10597538D-02  0.40305652D-01  0.22565625D-01
 -0.21803748D-01 -0.30630008D-01 -0.46594180D-02  0.45627990D-02  0.64098415D-02
  0.16372316D-03  0.82229446D-01  0.11551631D+00  0.31217386D-01 -0.58601744D-01
 -0.82324005D-01 -0.18740621D-01 -0.91891445D-02 -0.12908953D-01 -0.28106878D-02
MO   12     MO 0.0        OCC NO =    2.0000000  ORB. ENERGY =   -0.752997
 -0.71133658D-02 -0.99803464D-02 -0.61230788D-02 -0.10626585D-02  0.10132876D-02
 -0.20695110D+00 -0.10723313D+00  0.43886587D+00  0.22740135D+00 -0.32190173D+00
 -0.16679558D+00  0.11445390D-01 -0.22993656D-01  0.37811453D-01 -0.28604326D-01
  0.23162366D-01  0.32497757D-01  0.19937818D-01  0.20394501D-02 -0.19446977D-02
 -0.64120287D-01 -0.33224366D-01 -0.31019924D+00 -0.16073186D+00 -0.11321644D+00
 -0.58663874D-01 -0.18415396D-01 -0.15785659D-02 -0.27415777D-01 -0.12236930D-01
  0.39057470D-01  0.55966827D-01  0.35596483D-01  0.12936870D-01 -0.12247044D-01
  0.31429938D+00  0.15871054D+00 -0.45547613D+00 -0.23000003D+00 -0.12345896D+00
 -0.62342596D-01 -0.17811458D-01  0.33956815D-01 -0.43555360D-01 -0.14032329D-01
 -0.37834189D-01 -0.53842035D-01 -0.33932129D-01 -0.14363416D-01  0.13285908D-01
  0.30976893D+00  0.16066845D+00  0.24769276D+00  0.12847128D+00 -0.32579764D+00
 -0.16898209D+00  0.15146508D-01  0.33735338D-01  0.26068740D-01 -0.35803346D-01
 -0.39686778D-01 -0.55752173D-01 -0.11677591D-01  0.21571268D-01  0.30303419D-01
  0.50501408D-02  0.91053667D-03  0.12791262D-02 -0.26313415D-03 -0.48016451D-01
 -0.67453736D-01 -0.12941754D-01  0.91065614D-01  0.12792940D+00  0.26213582D-01
MO   13     MO 0.0        OCC NO =    2.0000000  ORB. ENERGY =   -0.729624
  0.34558891D-02  0.48487553D-02  0.29747776D-02  0.11111511D-02 -0.10595272D-02
  0.28884615D+00  0.14966761D+00  0.11202210D+00  0.58045020D-01  0.19527474D+00
  0.10118294D+00 -0.12482594D-02  0.20871284D-01  0.10886566D-01  0.13387342D-01
 -0.27042370D-01 -0.37941563D-01 -0.23277667D-01 -0.22861894D-01  0.21799735D-01
 -0.48752230D+00 -0.25261302D+00 -0.14316385D+00 -0.74181329D-01 -0.10843761D+00
 -0.56187688D-01 -0.41628277D-02 -0.10912455D-01 -0.18495947D-01  0.99490006D-02
  0.17764437D+00  0.25455288D+00  0.16190282D+00  0.66532277D-01 -0.62984611D-01
  0.11292742D+01  0.57024524D+00 -0.38373822D+00 -0.19377481D+00  0.87788116D+00
  0.44330026D+00 -0.74600651D-01  0.12701851D+00 -0.36518418D-01  0.95131793D-01
  0.32513521D-01  0.46270163D-01  0.29160212D-01  0.61896327D-02 -0.57253015D-02
  0.31524658D+00  0.16350955D+00  0.28528482D-01  0.14796923D-01  0.18711611D+00
  0.97051873D-01 -0.25785902D-01  0.29429105D-01 -0.58601654D-02  0.22639371D-01
 -0.24123223D-01 -0.33888417D-01 -0.98774808D-02  0.38681072D-01  0.54339352D-01
  0.10208671D-01  0.27377830D-01  0.38460504D-01  0.12405258D-01  0.43987832D-01
  0.61794313D-01  0.18602605D-01 -0.28425652D-01 -0.39932490D-01 -0.14277482D-01
MO   14     MO 0.0        OCC NO =    2.0000000  ORB. ENERGY =   -0.689092
  0.76144220D-02  0.10683349D-01  0.65543805D-02  0.35485135D-02 -0.33836503D-02
 -0.10900815D+00 -0.56483319D-01 -0.73237774D-02 -0.37948654D-02  0.42880712D+00
  0.22218934D+00 -0.41201967D-02 -0.11246544D-01 -0.54074980D-03  0.41771570D-01
 -0.33544711D-02 -0.47064616D-02 -0.28874785D-02 -0.14342168D-02  0.13675834D-02
  0.15294266D+00  0.79248288D-01 -0.50248755D-01 -0.26036737D-01 -0.28291757D+00
 -0.14659567D+00  0.24154310D-02  0.19266712D-01 -0.10840577D-01 -0.33311935D-01
 -0.76597524D-02 -0.10975930D-01 -0.69810012D-02 -0.27194122D-02  0.25744064D-02
  0.38894749D+00  0.19640532D+00 -0.30031096D+00 -0.15164687D+00 -0.83664499D+00
 -0.42247739D+00  0.44786232D-02  0.42535317D-01 -0.34559554D-01 -0.91465878D-01
  0.16891258D-02  0.24038038D-02  0.15149164D-02 -0.18696218D-02  0.17293673D-02
  0.18632935D+00  0.96643804D-01 -0.35212793D+00 -0.18263887D+00 -0.51533987D+00
 -0.26729233D+00 -0.29804853D-02  0.22419194D-01 -0.43484678D-01 -0.61021767D-01
  0.95818870D-02  0.13460680D-01  0.23634582D-02 -0.36836359D-02 -0.51747890D-02
 -0.20160605D-02  0.68345830D-01  0.96012544D-01  0.26675938D-01 -0.23615145D-01
 -0.33174667D-01 -0.85483715D-02 -0.53600532D-01 -0.75298280D-01 -0.18800388D-01
MO   15     MO 0.0        OCC NO =    2.0000000  ORB. ENERGY =   -0.579446
  0.57410305D-01  0.80549032D-01  0.49417931D-01  0.96062764D-02 -0.91599708D-02
  0.23937020D+00  0.12403131D+00  0.25113025D+00  0.13012486D+00  0.61150768D-01
  0.31685689D-01 -0.53794613D-01  0.24866280D-01  0.30535026D-01  0.77009051D-02
  0.36392100D-01  0.51059621D-01  0.31325775D-01  0.10038995D-01 -0.95725850D-02
 -0.11642127D+00 -0.60324481D-01 -0.22529661D+00 -0.11673898D+00  0.39693691D-01
  0.20567558D-01 -0.28979418D-01 -0.79799220D-02  0.25128348D-01 -0.12561421D-01
 -0.88703067D-02 -0.12710576D-01 -0.80842851D-02 -0.51865115D-02  0.49099539D-02
  0.27700834D+00  0.13987983D+00  0.18638074D+01  0.94115961D+00 -0.39275280D+00
 -0.19832687D+00  0.35624962D-02  0.33359837D-01  0.21825330D+00 -0.42526911D-01
 -0.93186013D-01 -0.13261351D+00 -0.83575196D-01 -0.14971616D-01  0.13848482D-01
 -0.11073061D+00 -0.57432862D-01  0.21842539D+00  0.11329112D+00 -0.31724801D+00
 -0.16454764D+00  0.81573242D-01 -0.19297449D-01  0.40719995D-01 -0.50434157D-01
 -0.10891193D-01 -0.15299999D-01 -0.90268927D-02 -0.13066635D-01 -0.18356070D-01
 -0.97300746D-03  0.15589500D-01  0.21900202D-01  0.11245154D-01  0.23728854D-01
  0.33334405D-01  0.18856950D-01 -0.95685531D-03 -0.13441948D-02  0.88225357D-02
MO   16     MO 0.0        OCC NO =    2.0000000  ORB. ENERGY =   -0.562565
  0.10226357D-01  0.14348002D-01  0.88026954D-02  0.29995530D-02 -0.28601944D-02
  0.34107150D-01  0.17672853D-01  0.53980151D-01  0.27970185D-01  0.12608597D-01
  0.65332311D-02 -0.69788457D-02  0.86841239D-02  0.34448673D-02  0.70152397D-02
  0.47696362D-02  0.66919968D-02  0.41056314D-02 -0.88508876D-03  0.84396773D-03
  0.47030298D-02  0.24369071D-02 -0.65096269D-01 -0.33730077D-01 -0.47525291D-01
 -0.24625555D-01 -0.70695777D-02  0.53208528D-02 -0.92464834D-03 -0.15752769D-01
 -0.58067179D-02 -0.83206511D-02 -0.52921691D-02 -0.28248718D-02  0.26742427D-02
  0.67362031D+00  0.34015545D+00 -0.24773861D+00 -0.12509961D+00 -0.12390497D+01
 -0.62567817D+00  0.29915577D-02  0.83802692D-01 -0.33127449D-01 -0.15321716D+00
 -0.71745737D-03 -0.10210174D-02 -0.64346181D-03  0.57748371D-02 -0.53416229D-02
 -0.36938812D+00 -0.19159125D+00  0.45453730D+00  0.23575574D+00  0.82817274D+00
  0.42954996D+00  0.92054324D-02 -0.57524372D-01  0.67065383D-01  0.12151415D+00
 -0.23586637D-02 -0.33134619D-02 -0.19006237D-02 -0.15913756D-02 -0.22355719D-02
  0.10678459D-02  0.42761178D-02  0.60071104D-02  0.33146302D-02  0.12227951D-02
  0.17177884D-02 -0.65938360D-02  0.96525867D-03  0.13559999D-02  0.76232195D-02
END DATA
 TOTAL ENERGY =    -9073.851397693870 THE VIRIAL(-V/T)=  44.75169859
