 STEP 3
GAUSSIAN             16 MOL ORBITALS     75 PRIMITIVES        9 NUCLEI
  C    1    (CENTRE  1)   8.93936644  2.43497447  0.87680080  CHARGE =  6.0
  C    2    (CENTRE  2)   7.36056073  0.06262741  0.97741737  CHARGE =  6.0
  O    3    (CENTRE  3)   5.24024834 -0.02219294 -0.04117146  CHARGE =  8.0
  N    4    (CENTRE  4)   8.33270955 -1.88335775  2.22964250  CHARGE =  7.0
  H    5    (CENTRE  5)   7.37283073 -3.29126796  2.58240901  CHARGE =  1.0
  H    6    (CENTRE  6)   9.87025498 -1.86191691  2.89911955  CHARGE =  1.0
  H    7    (CENTRE  7)   8.51295919  3.38530451  2.36314787  CHARGE =  1.0
  H    8    (CENTRE  8)  10.67377408  1.97476002  0.82831987  CHARGE =  1.0
  H    9    (CENTRE  9)   8.40437553  3.61099072 -0.47750167  CHARGE =  1.0
CENTRE ASSIGNMENTS    1  1  1  1  1  1  1  1  1  1  1  1  1  1  1  2  2  2  2  2
CENTRE ASSIGNMENTS    2  2  2  2  2  2  2  2  2  2  3  3  3  3  3  3  3  3  3  3
CENTRE ASSIGNMENTS    3  3  3  3  3  4  4  4  4  4  4  4  4  4  4  4  4  4  4  4
CENTRE ASSIGNMENTS    5  5  5  6  6  6  7  7  7  8  8  8  9  9  9
TYPE ASSIGNMENTS      1  1  1  1  1  2  2  3  3  4  4  1  2  3  4  1  1  1  1  1
TYPE ASSIGNMENTS      2  2  3  3  4  4  1  2  3  4  1  1  1  1  1  2  2  3  3  4
TYPE ASSIGNMENTS      4  1  2  3  4  1  1  1  1  1  2  2  3  3  4  4  1  2  3  4
TYPE ASSIGNMENTS      1  1  1  1  1  1  1  1  1  1  1  1  1  1  1
EXPONENTS  0.1722560D+03 0.2591090D+02 0.5533350D+01 0.3664980D+01 0.7705450D+00
EXPONENTS  0.3664980D+01 0.7705450D+00 0.3664980D+01 0.7705450D+00 0.3664980D+01
EXPONENTS  0.7705450D+00 0.1958570D+00 0.1958570D+00 0.1958570D+00 0.1958570D+00
EXPONENTS  0.1722560D+03 0.2591090D+02 0.5533350D+01 0.3664980D+01 0.7705450D+00
EXPONENTS  0.3664980D+01 0.7705450D+00 0.3664980D+01 0.7705450D+00 0.3664980D+01
EXPONENTS  0.7705450D+00 0.1958570D+00 0.1958570D+00 0.1958570D+00 0.1958570D+00
EXPONENTS  0.3220370D+03 0.4843080D+02 0.1042060D+02 0.7402940D+01 0.1576200D+01
EXPONENTS  0.7402940D+01 0.1576200D+01 0.7402940D+01 0.1576200D+01 0.7402940D+01
EXPONENTS  0.1576200D+01 0.3736840D+00 0.3736840D+00 0.3736840D+00 0.3736840D+00
EXPONENTS  0.2427660D+03 0.3648510D+02 0.7814490D+01 0.5425220D+01 0.1149150D+01
EXPONENTS  0.5425220D+01 0.1149150D+01 0.5425220D+01 0.1149150D+01 0.5425220D+01
EXPONENTS  0.1149150D+01 0.2832050D+00 0.2832050D+00 0.2832050D+00 0.2832050D+00
EXPONENTS  0.5447178D+01 0.8245472D+00 0.1831916D+00 0.5447178D+01 0.8245472D+00
EXPONENTS  0.1831916D+00 0.5447178D+01 0.8245472D+00 0.1831916D+00 0.5447178D+01
EXPONENTS  0.8245472D+00 0.1831916D+00 0.5447178D+01 0.8245472D+00 0.1831916D+00
MO    1     MO 0.0        OCC NO =    2.0000000  ORB. ENERGY =  -20.569847
 -0.10156993D-03 -0.14250681D-03 -0.87429874D-04  0.24899162D-03 -0.23742353D-03
 -0.97933234D-04 -0.50744776D-04 -0.91015139D-04 -0.47160117D-04 -0.23019529D-03
 -0.11927727D-03  0.14847365D-02  0.81069388D-03 -0.13848101D-02  0.92655382D-03
  0.24617285D-03  0.34539069D-03  0.21190191D-03 -0.11177904D-02  0.10658581D-02
 -0.26873562D-02 -0.13924720D-02  0.31105366D-03  0.16117458D-03 -0.14787820D-02
 -0.76624104D-03  0.31447786D-02 -0.52345780D-02 -0.75029105D-03 -0.22617102D-02
  0.31575708D+01  0.45245946D+01  0.28777700D+01 -0.12997837D+00  0.12304760D+00
  0.17319290D-01  0.87456549D-02  0.33872682D-04  0.17104557D-04  0.87578145D-02
  0.44223998D-02 -0.19848677D-01 -0.60800229D-02  0.15157328D-04 -0.30363156D-02
 -0.13373670D-03 -0.19032141D-03 -0.11994366D-03  0.39106528D-03 -0.36172851D-03
 -0.20573915D-02 -0.10671113D-02 -0.20742141D-02 -0.10758366D-02  0.80976507D-04
  0.42000241D-04  0.10658740D-02  0.26169611D-02  0.19177146D-02  0.32960473D-03
  0.99470726D-03  0.13973694D-02  0.35639974D-03 -0.10816989D-02 -0.15195757D-02
 -0.29722519D-03  0.23460335D-04  0.32957189D-04 -0.14404622D-03 -0.46965389D-03
 -0.65977199D-03 -0.49839553D-03  0.34588724D-03  0.48590403D-03  0.71223471D-03
MO    2     MO 0.0        OCC NO =    2.0000000  ORB. ENERGY =  -15.631670
 -0.32176310D-03 -0.45144694D-03 -0.27696886D-03  0.88349365D-03 -0.84244672D-03
  0.52637707D-03  0.27274589D-03  0.66046612D-03  0.34222504D-03 -0.34656475D-03
 -0.17957490D-03  0.10361804D-02 -0.10240297D-02  0.32846956D-03 -0.33927564D-03
 -0.25232120D-03 -0.35401707D-03 -0.21719431D-03  0.91628414D-03 -0.87371378D-03
  0.52674545D-04  0.27293676D-04 -0.45695545D-03 -0.23677459D-03  0.24715318D-03
  0.12806411D-03  0.44407834D-02  0.14069342D-02 -0.35318402D-02  0.20575797D-02
  0.52225950D-04  0.74836408D-04  0.47598069D-04  0.31058501D-03 -0.29402385D-03
 -0.10240050D-02 -0.51708783D-03 -0.25629427D-02 -0.12941993D-02  0.58107334D-03
  0.29342236D-03  0.31640340D-03  0.92377464D-04  0.17512187D-02 -0.65855766D-03
  0.25868902D+01  0.36814171D+01  0.23200891D+01 -0.10754047D+00  0.99473046D-01
 -0.16993118D-02 -0.88138534D-03  0.30238703D-02  0.15683967D-02 -0.11553187D-02
 -0.59923139D-03 -0.19293840D-01  0.15676184D-02 -0.25356980D-02  0.16315731D-02
  0.41316049D-03  0.58040980D-03  0.15062497D-02 -0.11041514D-04 -0.15511170D-04
  0.16985714D-02 -0.83704209D-04 -0.11758807D-03 -0.34650973D-03  0.17159508D-03
  0.24105758D-03  0.26544991D-03 -0.45467710D-03 -0.63873253D-03 -0.20772252D-03
MO    3     MO 0.0        OCC NO =    2.0000000  ORB. ENERGY =  -11.461535
 -0.20276965D-02 -0.28449420D-02 -0.17454108D-02  0.17750641D-02 -0.16925950D-02
  0.40359802D-03  0.20912708D-03  0.82095996D-03  0.42538602D-03  0.45148960D-03
  0.23394243D-03  0.49059808D-02 -0.13064038D-02 -0.28905689D-02  0.93290520D-04
  0.20653492D+01  0.28977704D+01  0.17778217D+01 -0.71112306D-01  0.67808443D-01
 -0.15731100D-03 -0.81511769D-04  0.10709453D-02  0.55491762D-03 -0.26304496D-03
 -0.13629855D-03 -0.10972058D-01 -0.34832300D-02 -0.28706672D-02 -0.62486668D-03
  0.68077286D-03  0.97550346D-03  0.62044775D-03 -0.25262084D-02  0.23915047D-02
 -0.10681811D-02 -0.53939528D-03 -0.19886117D-02 -0.10041816D-02  0.22041421D-03
  0.11130171D-03 -0.18888278D-02 -0.18115284D-02  0.11646709D-02 -0.13437742D-02
  0.10034245D-03  0.14279787D-03  0.89993547D-04  0.36279958D-03 -0.33558324D-03
 -0.98312285D-03 -0.50991823D-03 -0.35754105D-02 -0.18544651D-02  0.10931225D-02
  0.56697197D-03  0.17476444D-02  0.21651080D-02  0.15747056D-02  0.31499249D-03
  0.48920589D-03  0.68723874D-03  0.54846933D-03 -0.10999456D-02 -0.15452088D-02
 -0.22881947D-03 -0.66861257D-03 -0.93927009D-03  0.81689621D-03 -0.70590527D-03
 -0.99165904D-03  0.23494664D-03 -0.44724049D-03 -0.62828555D-03  0.45957294D-03
MO    4     MO 0.0        OCC NO =    2.0000000  ORB. ENERGY =  -11.285060
  0.20665212D+01  0.28994147D+01  0.17788305D+01 -0.77864671D-01  0.74247095D-01
 -0.20141668D-03 -0.10436543D-03  0.56566512D-03  0.29310325D-03  0.10161345D-02
  0.52651704D-03 -0.19568254D-01  0.95430481D-03  0.28243632D-03 -0.30511039D-03
  0.83434030D-03  0.11706139D-02  0.71818764D-03  0.11849393D-02 -0.11298872D-02
 -0.50588212D-04 -0.26212629D-04  0.52438165D-04  0.27171194D-04  0.15074252D-03
  0.78108268D-04  0.37484540D-02  0.82337457D-03  0.25324022D-02 -0.54874565D-03
  0.11072840D-03  0.15866663D-03  0.10091646D-03  0.14042091D-04 -0.13293332D-04
 -0.84583455D-03 -0.42711781D-03  0.24764877D-03  0.12505424D-03 -0.59426806D-03
 -0.30008525D-03 -0.52288783D-03 -0.26596045D-03 -0.70304661D-03  0.16416507D-03
 -0.18602661D-03 -0.26473545D-03 -0.16684060D-03  0.10685173D-02 -0.98835975D-03
  0.75161210D-04  0.38984010D-04 -0.21441385D-02 -0.11121045D-02  0.69184433D-03
  0.35884024D-03  0.84373425D-03 -0.31514311D-03  0.70422610D-03 -0.39807606D-03
 -0.51701945D-05 -0.72631135D-05  0.36395114D-03 -0.60273256D-04 -0.84672153D-04
  0.54976889D-04 -0.34909204D-03 -0.49040614D-03  0.39738968D-02 -0.69177609D-03
 -0.97181031D-03  0.35470307D-02 -0.20925889D-03 -0.29396788D-03  0.35272512D-02
MO    5     MO 0.0        OCC NO =    2.0000000  ORB. ENERGY =   -1.540520
 -0.50000131D-01 -0.70152251D-01 -0.43039364D-01 -0.18773928D-01  0.17901696D-01
 -0.26258387D-01 -0.13605963D-01 -0.31629351D-01 -0.16388965D-01  0.80725261D-03
  0.41828347D-03  0.30427114D-02 -0.12663243D-02  0.53967497D-02 -0.17378187D-02
 -0.27905614D+00 -0.39152731D+00 -0.24020735D+00 -0.11253134D+00  0.10730316D+00
 -0.17539941D+00 -0.90884406D-01 -0.55625498D-01 -0.28822733D-01 -0.61284815D-01
 -0.31755147D-01  0.30727620D-01  0.11992868D-01  0.70622810D-02  0.35959626D-02
 -0.61570188D+00 -0.88226096D+00 -0.56114289D+00 -0.22468942D+00  0.21270842D+00
  0.41164566D+00  0.20786712D+00  0.26856750D-02  0.13561749D-02  0.20650051D+00
  0.10427576D+00  0.20994733D+00  0.44695637D-01 -0.32165471D-02  0.24182053D-01
 -0.19486449D+00 -0.27731269D+00 -0.17476698D+00 -0.71606984D-01  0.66235202D-01
 -0.57374841D-01 -0.29758720D-01  0.75424899D-01  0.39120778D-01 -0.50543371D-01
 -0.26215428D-01  0.54182213D-01 -0.13620197D-01  0.21546058D-02 -0.63286572D-02
  0.10505268D-01  0.14757850D-01 -0.98565533D-03  0.14879707D-01  0.20903083D-01
  0.14948558D-03  0.40256265D-02  0.56552191D-02 -0.17333782D-02  0.46955158D-02
  0.65962827D-02  0.34247636D-04  0.30430027D-02  0.42748245D-02 -0.27504055D-02
MO    6     MO 0.0        OCC NO =    2.0000000  ORB. ENERGY =   -1.393377
 -0.36847694D-01 -0.51698839D-01 -0.31717944D-01 -0.14851876D-01  0.14161861D-01
  0.52450827D-02  0.27177755D-02 -0.27929366D-01 -0.14471792D-01  0.14335057D-01
  0.74278078D-02  0.63002275D-02  0.45618557D-02 -0.22424728D-02  0.30134001D-02
 -0.76285915D-01 -0.10703229D+00 -0.65665774D-01 -0.34297835D-01  0.32704365D-01
  0.21275122D+00  0.11023850D+00 -0.13830131D+00 -0.71661772D-01  0.16255377D+00
  0.84228351D-01  0.49630275D-02 -0.12490787D-02  0.65430469D-02 -0.32331092D-02
  0.32560149D+00  0.46656587D+00  0.29674907D+00  0.12150105D+00 -0.11502231D+00
 -0.13564112D+00 -0.68494173D-01 -0.51686814D-01 -0.26100091D-01 -0.46793863D-01
 -0.23629317D-01 -0.11460120D+00 -0.15722772D-01 -0.76465046D-02 -0.49993407D-02
 -0.53128200D+00 -0.75607022D+00 -0.47648779D+00 -0.19258891D+00  0.17814136D+00
  0.14595843D-01  0.75704539D-02  0.61100818D-01  0.31691279D-01  0.78801327D-02
  0.40872037D-02  0.17387000D+00 -0.45021068D-02  0.13963492D-01 -0.44946953D-02
  0.41698352D-01  0.58578042D-01  0.81242926D-03  0.47740287D-01  0.67065780D-01
  0.18078804D-03  0.37673514D-02  0.52923929D-02 -0.29657085D-03  0.46410558D-02
  0.65197770D-02 -0.14778855D-02  0.27378225D-02  0.38461059D-02  0.53755178D-03
MO    7     MO 0.0        OCC NO =    2.0000000  ORB. ENERGY =   -1.196364
 -0.42172520D+00 -0.59169789D+00 -0.36301474D+00 -0.14506788D+00  0.13832806D+00
 -0.13693574D-01 -0.70954194D-02 -0.12598414D-01 -0.65279547D-02  0.33016507D-01
  0.17107729D-01  0.11893685D+00 -0.35382202D-02  0.23150682D-02  0.28849270D-02
 -0.11374067D+00 -0.15958286D+00 -0.97906263D-01 -0.48900466D-01  0.46628561D-01
  0.15292315D+00  0.79238179D-01  0.19281341D+00  0.99907590D-01  0.64501408D-02
  0.33421846D-02  0.22088976D-01  0.94386084D-02  0.40429866D-02  0.34158704D-02
  0.12311251D+00  0.17641226D+00  0.11220318D+00  0.48878018D-01 -0.46271721D-01
  0.28497460D-01  0.14390252D-01  0.11477821D+00  0.57959109D-01 -0.25459601D-01
 -0.12856237D-01 -0.41848989D-01  0.24055282D-02  0.86410168D-02 -0.20060011D-02
  0.12420200D+00  0.17675252D+00  0.11139232D+00  0.42762677D-01 -0.39554725D-01
  0.37835863D-01  0.19624400D-01  0.15491979D+00  0.80352545D-01 -0.53102178D-01
 -0.27542609D-01 -0.47645094D-01  0.33033924D-02  0.57170941D-02 -0.21321890D-02
 -0.22370395D-01 -0.31426036D-01 -0.30608018D-02 -0.10767063D-01 -0.15125621D-01
 -0.10323724D-02  0.52651383D-01  0.73964910D-01 -0.28321703D-02  0.50886580D-01
  0.71485708D-01 -0.20460299D-03  0.44220609D-01  0.62121320D-01 -0.32994262D-02
MO    8     MO 0.0        OCC NO =    2.0000000  ORB. ENERGY =   -0.982547
  0.11260743D+00  0.15799289D+00  0.96930794D-01  0.33907176D-01 -0.32331856D-01
 -0.49162713D-01 -0.25473997D-01 -0.18410963D+00 -0.95397665D-01  0.19148153D-01
  0.99217464D-02 -0.45860877D-01  0.27696868D-02 -0.44769755D-02 -0.84487240D-03
 -0.26448701D+00 -0.37108622D+00 -0.22766646D+00 -0.11644930D+00  0.11103909D+00
  0.14577679D+00  0.75535240D-01 -0.20524436D+00 -0.10634877D+00  0.14800235D+00
  0.76688432D-01  0.65678254D-01  0.15705306D-01  0.42265945D-02  0.73253793D-02
  0.19641100D+00  0.28144425D+00  0.17900649D+00  0.75877997D-01 -0.71831994D-01
  0.26997359D+00  0.13632752D+00 -0.14708371D+00 -0.74272292D-01  0.18270913D+00
  0.92261922D-01 -0.76749767D-01  0.25933735D-01 -0.16624306D-01  0.17614759D-01
  0.10483866D+00  0.14919645D+00  0.94026038D-01  0.38861562D-01 -0.35946262D-01
 -0.36454150D+00 -0.18907744D+00  0.69868498D+00  0.36238829D+00 -0.49391067D+00
 -0.25617760D+00 -0.40987462D-01 -0.35874452D-01  0.56391772D-01 -0.44655847D-01
 -0.50856547D-01 -0.71443517D-01 -0.96655758D-02 -0.54542296D-01 -0.76621275D-01
 -0.75020908D-02 -0.23732418D-01 -0.33339413D-01 -0.43276303D-02 -0.16006104D-01
 -0.22485450D-01 -0.49634431D-02 -0.27988205D-01 -0.39317963D-01 -0.67096797D-02
MO    9     MO 0.0        OCC NO =    2.0000000  ORB. ENERGY =   -0.910657
  0.69703439D-01  0.97796807D-01  0.59999677D-01  0.21099870D-01 -0.20119574D-01
 -0.26692724D-01 -0.13831018D-01 -0.18615801D+00 -0.96459046D-01  0.25726853D-02
  0.13330545D-02 -0.30135321D-01  0.58247252D-03 -0.12554144D-01  0.21848590D-02
 -0.20405045D-01 -0.28629121D-01 -0.17564357D-01 -0.39561916D-02  0.37723878D-02
  0.15056398D+00  0.78015756D-01  0.17184239D+00  0.89041309D-01 -0.24534766D-01
 -0.12712857D-01  0.11740539D-01  0.96315247D-02  0.13572258D-01 -0.30259212D-02
 -0.89009598D-01 -0.12754499D+00 -0.81122219D-01 -0.28878098D-01  0.27338246D-01
 -0.12198833D+00 -0.61599978D-01  0.25746302D+00  0.13001011D+00 -0.20205574D+00
 -0.10203131D+00  0.40051875D-01 -0.91831647D-02  0.23397516D-01 -0.17383199D-01
  0.48236842D-02  0.68646105D-02  0.43261896D-02  0.23023886D-02 -0.21296690D-02
  0.95857814D+00  0.49718758D+00  0.44486587D+00  0.23073944D+00  0.16767156D+00
  0.86966531D-01 -0.57996015D-03  0.90535254D-01  0.43431002D-01  0.14962029D-01
 -0.75631549D-01 -0.10624756D+00 -0.13416631D-01  0.82799647D-01  0.11631733D+00
  0.12192896D-01 -0.23188141D-01 -0.32574809D-01 -0.52992123D-02 -0.66983300D-02
 -0.94098455D-02  0.93470034D-03 -0.23917543D-01 -0.33599476D-01 -0.20137610D-02
MO   10     MO 0.0        OCC NO =    2.0000000  ORB. ENERGY =   -0.831601
 -0.49049996D-01 -0.68819173D-01 -0.42221502D-01 -0.14085888D-01  0.13431461D-01
  0.43562825D+00  0.22572376D+00  0.60607646D-01  0.31404267D-01  0.37623965D-01
  0.19495115D-01  0.28154489D-01  0.31507560D-01 -0.67221195D-02  0.64225952D-02
  0.14537851D+00  0.20397207D+00  0.12513965D+00  0.63545952D-01 -0.60593621D-01
  0.16141398D+00  0.83637758D-01 -0.36604235D+00 -0.18966735D+00  0.14385084D+00
  0.74537298D-01 -0.48310720D-01 -0.11490075D-01 -0.32776733D-01 -0.48803304D-03
 -0.22657156D+00 -0.32466239D+00 -0.20649445D+00 -0.83460703D-01  0.79010371D-01
 -0.79312158D+00 -0.40049954D+00 -0.65936232D+00 -0.33295565D+00 -0.26324021D+00
 -0.13292739D+00  0.95058355D-01 -0.80290122D-01 -0.61076274D-01 -0.28608919D-01
 -0.87540919D-02 -0.12457994D-01 -0.78512314D-02 -0.54736274D-02  0.50630092D-02
 -0.64104267D-02 -0.33249084D-02  0.29895338D+00  0.15505873D+00 -0.24028677D+00
 -0.12463000D+00  0.31635026D-02  0.84385626D-02  0.36017383D-01 -0.23111655D-01
 -0.23818521D-01 -0.33460371D-01 -0.30484357D-02 -0.76471180D-02 -0.10742707D-01
 -0.21443596D-02  0.19209284D-02  0.26985292D-02  0.13578449D-02  0.70227313D-01
  0.98655659D-01  0.20464753D-01 -0.83055750D-02 -0.11667711D-01  0.14208813D-02
MO   11     MO 0.0        OCC NO =    2.0000000  ORB. ENERGY =   -0.796055
  0.15481772D-01  0.21721567D-01  0.13326478D-01  0.74894186D-02 -0.71414619D-02
 -0.26416537D+00 -0.13687909D+00  0.28238686D+00  0.14632069D+00  0.37873804D+00
  0.19624571D+00 -0.97797637D-03 -0.21480329D-01  0.18069960D-01  0.29170777D-01
  0.46203998D-01  0.64826119D-01  0.39771710D-01  0.22162734D-01 -0.21133058D-01
 -0.35568746D-01 -0.18430189D-01 -0.47695852D-01 -0.24713933D-01  0.32993716D+00
  0.17095920D+00 -0.14077265D-01 -0.16006209D-01 -0.33003523D-02  0.24739401D-01
 -0.82222204D-01 -0.11781910D+00 -0.74936275D-01 -0.31284064D-01  0.29615920D-01
 -0.60811112D+00 -0.30707552D+00 -0.42314665D-01 -0.21367473D-01  0.34186980D+00
  0.17263268D+00  0.33440255D-01 -0.63446571D-01 -0.23116008D-02  0.32663135D-01
 -0.10651525D-01 -0.15158241D-01 -0.95529708D-02 -0.42183408D-02  0.39018911D-02
 -0.42180199D-01 -0.21877685D-01  0.37285128D+00  0.19338749D+00  0.19231713D+00
  0.99749500D-01  0.48446359D-02 -0.10462067D-02  0.40368302D-01  0.22531001D-01
 -0.21848392D-01 -0.30692724D-01 -0.46735346D-02  0.45748702D-02  0.64267992D-02
  0.16881748D-03  0.82262248D-01  0.11556239D+00  0.31192981D-01 -0.58541271D-01
 -0.82239053D-01 -0.18762996D-01 -0.91399233D-02 -0.12839807D-01 -0.27869913D-02
MO   12     MO 0.0        OCC NO =    2.0000000  ORB. ENERGY =   -0.752368
 -0.71828652D-02 -0.10077857D-01 -0.61829028D-02 -0.10940325D-02  0.10432039D-02
 -0.20682509D+00 -0.10716784D+00  0.43867679D+00  0.22730338D+00 -0.32247606D+00
 -0.16709318D+00  0.11479075D-01 -0.22960262D-01  0.37795885D-01 -0.28660700D-01
  0.23194128D-01  0.32542321D-01  0.19965158D-01  0.20697714D-02 -0.19736103D-02
 -0.63719093D-01 -0.33016484D-01 -0.31013910D+00 -0.16070070D+00 -0.11320963D+00
 -0.58660342D-01 -0.18403923D-01 -0.15792571D-02 -0.27390823D-01 -0.12247285D-01
  0.38938526D-01  0.55796389D-01  0.35488079D-01  0.12887230D-01 -0.12200051D-01
  0.31324652D+00  0.15817888D+00 -0.45487766D+00 -0.22969781D+00 -0.12397329D+00
 -0.62602311D-01 -0.17771573D-01  0.33825355D-01 -0.43485538D-01 -0.14085630D-01
 -0.37875513D-01 -0.53900843D-01 -0.33969191D-01 -0.14366906D-01  0.13289136D-01
  0.30922891D+00  0.16038836D+00  0.24739096D+00  0.12831475D+00 -0.32627716D+00
 -0.16923081D+00  0.15184327D-01  0.33681251D-01  0.26043668D-01 -0.35870465D-01
 -0.39643373D-01 -0.55691197D-01 -0.11674926D-01  0.21513309D-01  0.30221998D-01
  0.50466945D-02  0.82133660D-03  0.11538175D-02 -0.29618670D-03 -0.47991045D-01
 -0.67418046D-01 -0.12967701D-01  0.91121869D-01  0.12800843D+00  0.26227052D-01
MO   13     MO 0.0        OCC NO =    2.0000000  ORB. ENERGY =   -0.728900
  0.35149172D-02  0.49315742D-02  0.30255881D-02  0.11286659D-02 -0.10762283D-02
  0.28839580D+00  0.14943426D+00  0.11237722D+00  0.58229028D-01  0.19487318D+00
  0.10097487D+00 -0.12837868D-02  0.20823648D-01  0.10936090D-01  0.13357897D-01
 -0.27203538D-01 -0.38167689D-01 -0.23416399D-01 -0.22954522D-01  0.21888060D-01
 -0.48777092D+00 -0.25274184D+00 -0.14330496D+00 -0.74254447D-01 -0.10867570D+00
 -0.56311056D-01 -0.41155813D-02 -0.10918552D-01 -0.18492166D-01  0.99250512D-02
  0.17799512D+00  0.25505549D+00  0.16222250D+00  0.66662892D-01 -0.63108261D-01
  0.11304405D+01  0.57083416D+00 -0.38359247D+00 -0.19370121D+00  0.87790259D+00
  0.44331108D+00 -0.74767213D-01  0.12710255D+00 -0.36503963D-01  0.95112735D-01
  0.32515253D-01  0.46272629D-01  0.29161766D-01  0.61967187D-02 -0.57318560D-02
  0.31506713D+00  0.16341648D+00  0.28519752D-01  0.14792395D-01  0.18677305D+00
  0.96873937D-01 -0.25783978D-01  0.29392806D-01 -0.58645920D-02  0.22596177D-01
 -0.24131631D-01 -0.33900229D-01 -0.98939513D-02  0.38674177D-01  0.54329666D-01
  0.10232944D-01  0.27354272D-01  0.38427411D-01  0.12385411D-01  0.43912079D-01
  0.61687895D-01  0.18609708D-01 -0.28333056D-01 -0.39802410D-01 -0.14252447D-01
MO   14     MO 0.0        OCC NO =    2.0000000  ORB. ENERGY =   -0.688414
  0.75689575D-02  0.10619560D-01  0.65152453D-02  0.35317058D-02 -0.33676235D-02
 -0.10891914D+00 -0.56437198D-01 -0.72118667D-02 -0.37368781D-02  0.42862871D+00
  0.22209690D+00 -0.40874912D-02 -0.11235907D-01 -0.52895442D-03  0.41766932D-01
 -0.33337026D-02 -0.46773226D-02 -0.28696013D-02 -0.14136876D-02  0.13480079D-02
  0.15294093D+00  0.79247388D-01 -0.50398037D-01 -0.26114088D-01 -0.28300879D+00
 -0.14664294D+00  0.24193841D-02  0.19261813D-01 -0.10849557D-01 -0.33314918D-01
 -0.76445897D-02 -0.10954202D-01 -0.69671821D-02 -0.27156344D-02  0.25708300D-02
  0.38854246D+00  0.19620078D+00 -0.30009519D+00 -0.15153791D+00 -0.83573350D+00
 -0.42201712D+00  0.44662065D-02  0.42475692D-01 -0.34518512D-01 -0.91341368D-01
  0.16785605D-02  0.23887684D-02  0.15054408D-02 -0.18741345D-02  0.17335414D-02
  0.18678572D+00  0.96880511D-01 -0.35249252D+00 -0.18282798D+00 -0.51631313D+00
 -0.26779713D+00 -0.29792273D-02  0.22488093D-01 -0.43536992D-01 -0.61153622D-01
  0.95706671D-02  0.13444918D-01  0.23634128D-02 -0.36825966D-02 -0.51733291D-02
 -0.20160036D-02  0.68323233D-01  0.95980799D-01  0.26644501D-01 -0.23604245D-01
 -0.33159354D-01 -0.85558162D-02 -0.53560709D-01 -0.75242336D-01 -0.18785768D-01
MO   15     MO 0.0        OCC NO =    2.0000000  ORB. ENERGY =   -0.578675
  0.57439685D-01  0.80590253D-01  0.49443221D-01  0.96102721D-02 -0.91637809D-02
  0.23926295D+00  0.12397574D+00  0.25104334D+00  0.13007983D+00  0.61092298D-01
  0.31655392D-01 -0.53833521D-01  0.24858646D-01  0.30542900D-01  0.77008317D-02
  0.36358170D-01  0.51012016D-01  0.31296568D-01  0.10030168D-01 -0.95641682D-02
 -0.11644245D+00 -0.60335455D-01 -0.22499056D+00 -0.11658040D+00  0.39730957D-01
  0.20586867D-01 -0.28959548D-01 -0.79905978D-02  0.25180260D-01 -0.12562046D-01
 -0.88124902D-02 -0.12627728D-01 -0.80315919D-02 -0.51628173D-02  0.48875230D-02
  0.27700830D+00  0.13987981D+00  0.18642715D+01  0.94139400D+00 -0.39267223D+00
 -0.19828618D+00  0.35289264D-02  0.33344745D-01  0.21825143D+00 -0.42519606D-01
 -0.93222014D-01 -0.13266474D+00 -0.83607485D-01 -0.14970259D-01  0.13847227D-01
 -0.11073422D+00 -0.57434730D-01  0.21829219D+00  0.11322203D+00 -0.31715965D+00
 -0.16450181D+00  0.81626893D-01 -0.19301785D-01  0.40718328D-01 -0.50439781D-01
 -0.10877293D-01 -0.15280473D-01 -0.90276971D-02 -0.13070797D-01 -0.18361918D-01
 -0.98105488D-03  0.15567005D-01  0.21868602D-01  0.11225678D-01  0.23722192D-01
  0.33325048D-01  0.18880533D-01 -0.95844820D-03 -0.13464325D-02  0.88221830D-02
MO   16     MO 0.0        OCC NO =    2.0000000  ORB. ENERGY =   -0.561879
  0.10230518D-01  0.14353840D-01  0.88062771D-02  0.30032661D-02 -0.28637350D-02
  0.34038399D-01  0.17637230D-01  0.54033800D-01  0.27997983D-01  0.12830964D-01
  0.66484519D-02 -0.69781198D-02  0.86781989D-02  0.34498314D-02  0.70481945D-02
  0.47692461D-02  0.66914495D-02  0.41052956D-02 -0.88539588D-03  0.84426058D-03
  0.49793251D-02  0.25800714D-02 -0.65313701D-01 -0.33842742D-01 -0.48106444D-01
 -0.24926683D-01 -0.70716722D-02  0.53496812D-02 -0.94897098D-03 -0.15837545D-01
 -0.57834902D-02 -0.82873673D-02 -0.52709997D-02 -0.28169911D-02  0.26667821D-02
  0.67402315D+00  0.34035887D+00 -0.24788801D+00 -0.12517505D+00 -0.12397627D+01
 -0.62603820D+00  0.29740316D-02  0.83826110D-01 -0.33133364D-01 -0.15326484D+00
 -0.74328880D-03 -0.10577782D-02 -0.66662909D-03  0.57606198D-02 -0.53284721D-02
 -0.36918284D+00 -0.19148478D+00  0.45428310D+00  0.23562390D+00  0.82769609D+00
  0.42930273D+00  0.92232248D-02 -0.57509361D-01  0.67046717D-01  0.12146808D+00
 -0.23515304D-02 -0.33034409D-02 -0.19001220D-02 -0.15865078D-02 -0.22287336D-02
  0.10642392D-02  0.43232827D-02  0.60733679D-02  0.33351570D-02  0.12019843D-02
  0.16885532D-02 -0.66068534D-02  0.93929486D-03  0.13195258D-02  0.76146489D-02
END DATA
 TOTAL ENERGY =    -9053.908863966933 THE VIRIAL(-V/T)=  44.65557737
