 STEP 2
GAUSSIAN             16 MOL ORBITALS     75 PRIMITIVES        9 NUCLEI
  C    1    (CENTRE  1)   8.93936644  2.43497447  0.87680080  CHARGE =  6.0
  C    2    (CENTRE  2)   7.36056073  0.06262741  0.97741737  CHARGE =  6.0
  O    3    (CENTRE  3)   5.24024834 -0.02219294 -0.04117146  CHARGE =  8.0
  N    4    (CENTRE  4)   8.33270955 -1.88335775  2.22964250  CHARGE =  7.0
  H    5    (CENTRE  5)   7.37283073 -3.29126796  2.58240901  CHARGE =  1.0
  H    6    (CENTRE  6)   9.87025498 -1.86191691  2.89911955  CHARGE =  1.0
  H    7    (CENTRE  7)   8.51295919  3.38530451  2.36314787  CHARGE =  1.0
  H    8    (CENTRE  8)  10.67377408  1.97476002  0.82831987  CHARGE =  1.0
  H    9    (CENTRE  9)   8.40437553  3.61099072 -0.47750167  CHARGE =  1.0
CENTRE ASSIGNMENTS    1  1  1  1  1  1  1  1  1  1  1  1  1  1  1  2  2  2  2  2
CENTRE ASSIGNMENTS    2  2  2  2  2  2  2  2  2  2  3  3  3  3  3  3  3  3  3  3
CENTRE ASSIGNMENTS    3  3  3  3  3  4  4  4  4  4  4  4  4  4  4  4  4  4  4  4
CENTRE ASSIGNMENTS    5  5  5  6  6  6  7  7  7  8  8  8  9  9  9
TYPE ASSIGNMENTS      1  1  1  1  1  2  2  3  3  4  4  1  2  3  4  1  1  1  1  1
TYPE ASSIGNMENTS      2  2  3  3  4  4  1  2  3  4  1  1  1  1  1  2  2  3  3  4
TYPE ASSIGNMENTS      4  1  2  3  4  1  1  1  1  1  2  2  3  3  4  4  1  2  3  4
TYPE ASSIGNMENTS      1  1  1  1  1  1  1  1  1  1  1  1  1  1  1
EXPONENTS  0.1722560D+03 0.2591090D+02 0.5533350D+01 0.3664980D+01 0.7705450D+00
EXPONENTS  0.3664980D+01 0.7705450D+00 0.3664980D+01 0.7705450D+00 0.3664980D+01
EXPONENTS  0.7705450D+00 0.1958570D+00 0.1958570D+00 0.1958570D+00 0.1958570D+00
EXPONENTS  0.1722560D+03 0.2591090D+02 0.5533350D+01 0.3664980D+01 0.7705450D+00
EXPONENTS  0.3664980D+01 0.7705450D+00 0.3664980D+01 0.7705450D+00 0.3664980D+01
EXPONENTS  0.7705450D+00 0.1958570D+00 0.1958570D+00 0.1958570D+00 0.1958570D+00
EXPONENTS  0.3220370D+03 0.4843080D+02 0.1042060D+02 0.7402940D+01 0.1576200D+01
EXPONENTS  0.7402940D+01 0.1576200D+01 0.7402940D+01 0.1576200D+01 0.7402940D+01
EXPONENTS  0.1576200D+01 0.3736840D+00 0.3736840D+00 0.3736840D+00 0.3736840D+00
EXPONENTS  0.2427660D+03 0.3648510D+02 0.7814490D+01 0.5425220D+01 0.1149150D+01
EXPONENTS  0.5425220D+01 0.1149150D+01 0.5425220D+01 0.1149150D+01 0.5425220D+01
EXPONENTS  0.1149150D+01 0.2832050D+00 0.2832050D+00 0.2832050D+00 0.2832050D+00
EXPONENTS  0.5447178D+01 0.8245472D+00 0.1831916D+00 0.5447178D+01 0.8245472D+00
EXPONENTS  0.1831916D+00 0.5447178D+01 0.8245472D+00 0.1831916D+00 0.5447178D+01
EXPONENTS  0.8245472D+00 0.1831916D+00 0.5447178D+01 0.8245472D+00 0.1831916D+00
MO    1     MO 0.0        OCC NO =    2.0000000  ORB. ENERGY =  -20.564493
 -0.10153401D-03 -0.14245642D-03 -0.87398960D-04  0.24897311D-03 -0.23740587D-03
 -0.97811759D-04 -0.50681833D-04 -0.90930109D-04 -0.47116059D-04 -0.23020613D-03
 -0.11928288D-03  0.14845898D-02  0.81076425D-03 -0.13847895D-02  0.92661810D-03
  0.24626159D-03  0.34551519D-03  0.21197829D-03 -0.11180443D-02  0.10661002D-02
 -0.26878583D-02 -0.13927322D-02  0.31096037D-03  0.16112625D-03 -0.14789206D-02
 -0.76631281D-03  0.31449598D-02 -0.52347258D-02 -0.75005639D-03 -0.22619101D-02
  0.31575729D+01  0.45245977D+01  0.28777719D+01 -0.12997643D+00  0.12304576D+00
  0.17334742D-01  0.87534576D-02  0.44576527D-04  0.22509637D-04  0.87594491D-02
  0.44232252D-02 -0.19849315D-01 -0.60808001D-02  0.14642097D-04 -0.30364164D-02
 -0.13382161D-03 -0.19044224D-03 -0.12001981D-03  0.39126812D-03 -0.36191614D-03
 -0.20573544D-02 -0.10670920D-02 -0.20743390D-02 -0.10759014D-02  0.81031485D-04
  0.42028757D-04  0.10661502D-02  0.26169077D-02  0.19178430D-02  0.32954433D-03
  0.99470421D-03  0.13973652D-02  0.35641441D-03 -0.10817169D-02 -0.15196009D-02
 -0.29719973D-03  0.23468618D-04  0.32968824D-04 -0.14406678D-03 -0.46964775D-03
 -0.65976337D-03 -0.49840423D-03  0.34590761D-03  0.48593264D-03  0.71227983D-03
MO    2     MO 0.0        OCC NO =    2.0000000  ORB. ENERGY =  -15.627040
 -0.32162155D-03 -0.45124833D-03 -0.27684701D-03  0.88323525D-03 -0.84220034D-03
  0.52641590D-03  0.27276600D-03  0.66046595D-03  0.34222496D-03 -0.34646669D-03
 -0.17952409D-03  0.10356477D-02 -0.10238391D-02  0.32864053D-03 -0.33930523D-03
 -0.25246584D-03 -0.35422002D-03 -0.21731882D-03  0.91636998D-03 -0.87379563D-03
  0.52610127D-04  0.27260298D-04 -0.45713131D-03 -0.23686572D-03  0.24722361D-03
  0.12810061D-03  0.44402809D-02  0.14071716D-02 -0.35310368D-02  0.20573719D-02
  0.52132418D-04  0.74702382D-04  0.47512825D-04  0.31085958D-03 -0.29428378D-03
 -0.10236840D-02 -0.51692576D-03 -0.25626441D-02 -0.12940485D-02  0.58111307D-03
  0.29344242D-03  0.31683937D-03  0.92454738D-04  0.17509081D-02 -0.65838805D-03
  0.25868898D+01  0.36814166D+01  0.23200888D+01 -0.10754044D+00  0.99473018D-01
 -0.16844475D-02 -0.87367565D-03  0.30191328D-02  0.15659394D-02 -0.11472085D-02
 -0.59502485D-03 -0.19293401D-01  0.15661830D-02 -0.25352522D-02  0.16307630D-02
  0.41288289D-03  0.58001982D-03  0.15062930D-02 -0.11290821D-04 -0.15861398D-04
  0.16993304D-02 -0.83643847D-04 -0.11750327D-03 -0.34646048D-03  0.17165618D-03
  0.24114341D-03  0.26537714D-03 -0.45461738D-03 -0.63864864D-03 -0.20773745D-03
MO    3     MO 0.0        OCC NO =    2.0000000  ORB. ENERGY =  -11.456323
 -0.20319342D-02 -0.28508877D-02 -0.17490585D-02  0.17751196D-02 -0.16926480D-02
  0.40375159D-03  0.20920665D-03  0.82130357D-03  0.42556407D-03  0.45146656D-03
  0.23393049D-03  0.49061176D-02 -0.13063709D-02 -0.28907962D-02  0.93307709D-04
  0.20653487D+01  0.28977696D+01  0.17778212D+01 -0.71113087D-01  0.67809188D-01
 -0.14572291D-03 -0.75507324D-04  0.10709309D-02  0.55491020D-03 -0.25897465D-03
 -0.13418949D-03 -0.10972353D-01 -0.34838299D-02 -0.28708731D-02 -0.62496839D-03
  0.68019994D-03  0.97468250D-03  0.61992560D-03 -0.25254899D-02  0.23908245D-02
 -0.10681458D-02 -0.53937745D-03 -0.19887942D-02 -0.10042737D-02  0.22050149D-03
  0.11134578D-03 -0.18885341D-02 -0.18107182D-02  0.11647608D-02 -0.13434464D-02
  0.10087905D-03  0.14356150D-03  0.90474803D-04  0.36239020D-03 -0.33520457D-03
 -0.98315845D-03 -0.50993670D-03 -0.35759870D-02 -0.18547641D-02  0.10934342D-02
  0.56713362D-03  0.17474340D-02  0.21654622D-02  0.15745845D-02  0.31516983D-03
  0.48930937D-03  0.68738411D-03  0.54847027D-03 -0.11000484D-02 -0.15453531D-02
 -0.22882441D-03 -0.66858929D-03 -0.93923739D-03  0.81699655D-03 -0.70598178D-03
 -0.99176652D-03  0.23499146D-03 -0.44719253D-03 -0.62821817D-03  0.45964738D-03
MO    4     MO 0.0        OCC NO =    2.0000000  ORB. ENERGY =  -11.280345
  0.20665212D+01  0.28994146D+01  0.17788305D+01 -0.77864712D-01  0.74247134D-01
 -0.19033365D-03 -0.98622685D-04  0.56327951D-03  0.29186713D-03  0.10121705D-02
  0.52446310D-03 -0.19568382D-01  0.95343894D-03  0.28279257D-03 -0.30480187D-03
  0.83864993D-03  0.11766605D-02  0.72189730D-03  0.11848783D-02 -0.11298291D-02
 -0.50493667D-04 -0.26163639D-04  0.52481001D-04  0.27193390D-04  0.15078145D-03
  0.78128441D-04  0.37484569D-02  0.82364192D-03  0.25322824D-02 -0.54871454D-03
  0.11067939D-03  0.15859641D-03  0.10087180D-03  0.14074038D-04 -0.13323576D-04
 -0.84565732D-03 -0.42702831D-03  0.24799780D-03  0.12523049D-03 -0.59419155D-03
 -0.30004662D-03 -0.52267768D-03 -0.26596130D-03 -0.70311306D-03  0.16424414D-03
 -0.18596692D-03 -0.26465051D-03 -0.16678707D-03  0.10683405D-02 -0.98819621D-03
  0.75364725D-04  0.39089568D-04 -0.21440594D-02 -0.11120634D-02  0.69183525D-03
  0.35883553D-03  0.84346041D-03 -0.31523564D-03  0.70410204D-03 -0.39799673D-03
 -0.52205657D-05 -0.73338753D-05  0.36396764D-03 -0.60214813D-04 -0.84590053D-04
  0.54984365D-04 -0.34869413D-03 -0.48984715D-03  0.39732878D-02 -0.69242519D-03
 -0.97272217D-03  0.35479425D-02 -0.20927951D-03 -0.29399684D-03  0.35271665D-02
MO    5     MO 0.0        OCC NO =    2.0000000  ORB. ENERGY =   -1.535089
 -0.50165813D-01 -0.70384711D-01 -0.43181981D-01 -0.18837253D-01  0.17962078D-01
 -0.26270071D-01 -0.13612017D-01 -0.31723077D-01 -0.16437530D-01  0.82885065D-03
  0.42947464D-03  0.30671809D-02 -0.12590676D-02  0.53987661D-02 -0.17366025D-02
 -0.27929568D+00 -0.39186338D+00 -0.24041354D+00 -0.11264948D+00  0.10741581D+00
 -0.17503485D+00 -0.90695504D-01 -0.55837925D-01 -0.28932803D-01 -0.61048119D-01
 -0.31632501D-01  0.30744119D-01  0.12025585D-01  0.70845963D-02  0.35920785D-02
 -0.61491397D+00 -0.88113194D+00 -0.56042480D+00 -0.22446921D+00  0.21249996D+00
  0.41169045D+00  0.20788974D+00  0.28788825D-02  0.14537382D-02  0.20638708D+00
  0.10421849D+00  0.20966891D+00  0.44741307D-01 -0.31741886D-02  0.24181526D-01
 -0.19597198D+00 -0.27888876D+00 -0.17576025D+00 -0.72013365D-01  0.66611097D-01
 -0.57283090D-01 -0.29711131D-01  0.75618262D-01  0.39221070D-01 -0.50553202D-01
 -0.26220527D-01  0.54527435D-01 -0.13629024D-01  0.21828370D-02 -0.63375734D-02
  0.10593244D-01  0.14881439D-01 -0.98175835D-03  0.14995924D-01  0.21066344D-01
  0.15808316D-03  0.40402113D-02  0.56757079D-02 -0.17366693D-02  0.47168321D-02
  0.66262279D-02  0.33278747D-04  0.30567487D-02  0.42941350D-02 -0.27534399D-02
MO    6     MO 0.0        OCC NO =    2.0000000  ORB. ENERGY =   -1.388640
 -0.36619587D-01 -0.51378795D-01 -0.31521593D-01 -0.14768675D-01  0.14082525D-01
  0.53519311D-02  0.27731397D-02 -0.27816075D-01 -0.14413089D-01  0.14319134D-01
  0.74195572D-02  0.62624579D-02  0.45708092D-02 -0.22630941D-02  0.30212591D-02
 -0.75386127D-01 -0.10576985D+00 -0.64891250D-01 -0.33930281D-01  0.32353888D-01
  0.21307481D+00  0.11040617D+00 -0.13802614D+00 -0.71519189D-01  0.16257135D+00
  0.84237458D-01  0.48105320D-02 -0.12887165D-02  0.65423307D-02 -0.32568870D-02
  0.32663137D+00  0.46804162D+00  0.29768769D+00  0.12193132D+00 -0.11542964D+00
 -0.13692454D+00 -0.69142256D-01 -0.51731874D-01 -0.26122845D-01 -0.47407997D-01
 -0.23939433D-01 -0.11491284D+00 -0.15876872D-01 -0.76603537D-02 -0.50646611D-02
 -0.53094590D+00 -0.75559192D+00 -0.47618635D+00 -0.19246397D+00  0.17802580D+00
  0.15290661D-01  0.79308366D-02  0.60665290D-01  0.31465383D-01  0.83241652D-02
  0.43175109D-02  0.17376417D+00 -0.43874207D-02  0.13969010D-01 -0.44595412D-02
  0.41714042D-01  0.58600083D-01  0.84246045D-03  0.47815858D-01  0.67171943D-01
  0.22635261D-03  0.37442509D-02  0.52599412D-02 -0.29151623D-03  0.46240146D-02
  0.64958375D-02 -0.14710459D-02  0.27223047D-02  0.38243065D-02  0.55151269D-03
MO    7     MO 0.0        OCC NO =    2.0000000  ORB. ENERGY =   -1.191602
 -0.42178280D+00 -0.59177871D+00 -0.36306432D+00 -0.14507364D+00  0.13833355D+00
 -0.13341065D-01 -0.69127642D-02 -0.12651901D-01 -0.65556693D-02  0.32951335D-01
  0.17073960D-01  0.11897305D+00 -0.34926810D-02  0.22687753D-02  0.28885653D-02
 -0.11358474D+00 -0.15936409D+00 -0.97772047D-01 -0.48832627D-01  0.46563874D-01
  0.15314410D+00  0.79352663D-01  0.19246661D+00  0.99727893D-01  0.66038440D-02
  0.34218270D-02  0.22023186D-01  0.94227171D-02  0.40040110D-02  0.34131387D-02
  0.12326658D+00  0.17663303D+00  0.11234360D+00  0.48969180D-01 -0.46358022D-01
  0.27892445D-01  0.14084740D-01  0.11426023D+00  0.57697546D-01 -0.25634662D-01
 -0.12944636D-01 -0.41876251D-01  0.23308257D-02  0.85820810D-02 -0.20255292D-02
  0.12401766D+00  0.17649019D+00  0.11122700D+00  0.42699145D-01 -0.39495959D-01
  0.37719857D-01  0.19564231D-01  0.15504023D+00  0.80415014D-01 -0.53229916D-01
 -0.27608864D-01 -0.47570643D-01  0.32909813D-02  0.57439262D-02 -0.21457642D-02
 -0.22369252D-01 -0.31424431D-01 -0.30722234D-02 -0.10777476D-01 -0.15140249D-01
 -0.10416046D-02  0.52617067D-01  0.73916703D-01 -0.28605639D-02  0.50965963D-01
  0.71597225D-01 -0.15975763D-03  0.44224861D-01  0.62127293D-01 -0.32764395D-02
MO    8     MO 0.0        OCC NO =    2.0000000  ORB. ENERGY =   -0.977834
  0.11254023D+00  0.15789860D+00  0.96872945D-01  0.33896191D-01 -0.32321381D-01
 -0.49142454D-01 -0.25463499D-01 -0.18400546D+00 -0.95343691D-01  0.19300391D-01
  0.10000630D-01 -0.45830372D-01  0.27654853D-02 -0.44957735D-02 -0.81808939D-03
 -0.26424292D+00 -0.37074374D+00 -0.22745635D+00 -0.11631457D+00  0.11091062D+00
  0.14654995D+00  0.75935860D-01 -0.20552383D+00 -0.10649358D+00  0.14846938D+00
  0.76930426D-01  0.65561530D-01  0.15709028D-01  0.42312146D-02  0.73041160D-02
  0.19616850D+00  0.28109677D+00  0.17878548D+00  0.75850110D-01 -0.71805593D-01
  0.26746293D+00  0.13505972D+00 -0.14734264D+00 -0.74403045D-01  0.18159517D+00
  0.91699412D-01 -0.76589227D-01  0.25625681D-01 -0.16654619D-01  0.17490765D-01
  0.10416783D+00  0.14824179D+00  0.93424395D-01  0.38653684D-01 -0.35753979D-01
 -0.36510524D+00 -0.18936984D+00  0.69907544D+00  0.36259081D+00 -0.49425950D+00
 -0.25635853D+00 -0.40611314D-01 -0.35913339D-01  0.56493225D-01 -0.44699345D-01
 -0.50812007D-01 -0.71380947D-01 -0.96823491D-02 -0.54642335D-01 -0.76761810D-01
 -0.76104189D-02 -0.23686833D-01 -0.33275374D-01 -0.42961469D-02 -0.16021695D-01
 -0.22507353D-01 -0.49831439D-02 -0.27984705D-01 -0.39313045D-01 -0.66966278D-02
MO    9     MO 0.0        OCC NO =    2.0000000  ORB. ENERGY =   -0.906132
  0.69678289D-01  0.97761521D-01  0.59978028D-01  0.21121423D-01 -0.20140126D-01
 -0.26642674D-01 -0.13805084D-01 -0.18558063D+00 -0.96159874D-01  0.26963262D-02
  0.13971199D-02 -0.30056508D-01  0.54417617D-03 -0.12538826D-01  0.21776610D-02
 -0.20367309D-01 -0.28576176D-01 -0.17531874D-01 -0.39372476D-02  0.37543239D-02
  0.14976751D+00  0.77603062D-01  0.17133528D+00  0.88778551D-01 -0.24670986D-01
 -0.12783440D-01  0.11656944D-01  0.95679317D-02  0.13453655D-01 -0.30076482D-02
 -0.88818409D-01 -0.12727103D+00 -0.80947972D-01 -0.28826977D-01  0.27289851D-01
 -0.12058502D+00 -0.60891354D-01  0.25594887D+00  0.12924551D+00 -0.20062365D+00
 -0.10130815D+00  0.39941699D-01 -0.90130320D-02  0.23243991D-01 -0.17222998D-01
  0.53036836D-02  0.75477002D-02  0.47566838D-02  0.24783461D-02 -0.22924266D-02
  0.95877648D+00  0.49729045D+00  0.44526119D+00  0.23094448D+00  0.16740947D+00
  0.86830596D-01 -0.85655925D-03  0.90472435D-01  0.43462662D-01  0.14893082D-01
 -0.75785611D-01 -0.10646398D+00 -0.13514852D-01  0.82937397D-01  0.11651085D+00
  0.12397234D-01 -0.23112326D-01 -0.32468304D-01 -0.52470165D-02 -0.67125436D-02
 -0.94298128D-02  0.94053841D-03 -0.23884851D-01 -0.33553551D-01 -0.20198011D-02
MO   10     MO 0.0        OCC NO =    2.0000000  ORB. ENERGY =   -0.826412
 -0.48743435D-01 -0.68389055D-01 -0.41957619D-01 -0.13991998D-01  0.13341933D-01
  0.43915650D+00  0.22755195D+00  0.59272652D-01  0.30712530D-01  0.35961144D-01
  0.18633513D-01  0.27911344D-01  0.31710914D-01 -0.67905561D-02  0.62783103D-02
  0.14536393D+00  0.20395161D+00  0.12512710D+00  0.63516909D-01 -0.60565927D-01
  0.15922989D+00  0.82506055D-01 -0.36603018D+00 -0.18966104D+00  0.14143625D+00
  0.73286163D-01 -0.48408203D-01 -0.11459851D-01 -0.32780945D-01 -0.56681749D-03
 -0.22594538D+00 -0.32376511D+00 -0.20592376D+00 -0.83305209D-01  0.78863168D-01
 -0.78531063D+00 -0.39655528D+00 -0.65721257D+00 -0.33187009D+00 -0.26185705D+00
 -0.13222894D+00  0.94790380D-01 -0.79301309D-01 -0.60715840D-01 -0.28388260D-01
 -0.88670897D-02 -0.12618802D-01 -0.79525751D-02 -0.55056393D-02  0.50926196D-02
 -0.54532918D-02 -0.28284694D-02  0.29578041D+00  0.15341300D+00 -0.24012460D+00
 -0.12454589D+00  0.32240213D-02  0.84847733D-02  0.35693261D-01 -0.23139627D-01
 -0.23652130D-01 -0.33226623D-01 -0.30593720D-02 -0.75347917D-02 -0.10584911D-01
 -0.21118853D-02  0.14166953D-02  0.19901803D-02  0.12087904D-02  0.70915629D-01
  0.99622609D-01  0.20898025D-01 -0.84468003D-02 -0.11866105D-01  0.13775124D-02
MO   11     MO 0.0        OCC NO =    2.0000000  ORB. ENERGY =   -0.791144
  0.14771021D-01  0.20724353D-01  0.12714674D-01  0.72947310D-02 -0.69558194D-02
 -0.26138228D+00 -0.13543702D+00  0.28472152D+00  0.14753041D+00  0.37901200D+00
  0.19638766D+00 -0.45841556D-03 -0.21249539D-01  0.18191233D-01  0.29321455D-01
  0.47382301D-01  0.66479328D-01  0.40785976D-01  0.22606547D-01 -0.21556252D-01
 -0.35253846D-01 -0.18267022D-01 -0.51333118D-01 -0.26598607D-01  0.32987301D+00
  0.17092596D+00 -0.14599879D-01 -0.16082328D-01 -0.36439499D-02  0.24609064D-01
 -0.83620047D-01 -0.11982212D+00 -0.76210251D-01 -0.31837896D-01  0.30140221D-01
 -0.60949002D+00 -0.30777182D+00 -0.48984768D-01 -0.24735649D-01  0.33796583D+00
  0.17066130D+00  0.34022886D-01 -0.63466469D-01 -0.29255963D-02  0.32225899D-01
 -0.10907776D-01 -0.15522914D-01 -0.97827939D-02 -0.43054669D-02  0.39824813D-02
 -0.41253865D-01 -0.21397222D-01  0.37505735D+00  0.19453172D+00  0.19015447D+00
  0.98627789D-01  0.49884262D-02 -0.93857208D-03  0.40669873D-01  0.22316766D-01
 -0.22097473D-01 -0.31042635D-01 -0.47494028D-02  0.46363952D-02  0.65132298D-02
  0.19410660D-03  0.82445738D-01  0.11582016D+00  0.31108772D-01 -0.58177293D-01
 -0.81727735D-01 -0.18810730D-01 -0.89589987D-02 -0.12585643D-01 -0.26927328D-02
MO   12     MO 0.0        OCC NO =    2.0000000  ORB. ENERGY =   -0.747604
 -0.74241077D-02 -0.10416330D-01 -0.63905608D-02 -0.12158192D-02  0.11593325D-02
 -0.20632529D+00 -0.10690886D+00  0.43759041D+00  0.22674047D+00 -0.32558421D+00
 -0.16870369D+00  0.11575783D-01 -0.22815700D-01  0.37705658D-01 -0.28947381D-01
  0.23348417D-01  0.32758794D-01  0.20097968D-01  0.22124017D-02 -0.21096140D-02
 -0.61405672D-01 -0.31817769D-01 -0.30976446D+00 -0.16050658D+00 -0.11285118D+00
 -0.58474614D-01 -0.18347359D-01 -0.15677190D-02 -0.27257675D-01 -0.12284384D-01
  0.38158631D-01  0.54678850D-01  0.34777293D-01  0.12574436D-01 -0.11903936D-01
  0.30693141D+00  0.15498997D+00 -0.45156879D+00 -0.22802695D+00 -0.12672317D+00
 -0.63990910D-01 -0.17480660D-01  0.33062175D-01 -0.43103516D-01 -0.14366160D-01
 -0.38092987D-01 -0.54210331D-01 -0.34164235D-01 -0.14392232D-01  0.13312562D-01
  0.30641212D+00  0.15892737D+00  0.24647564D+00  0.12784000D+00 -0.32838312D+00
 -0.17032311D+00  0.15374469D-01  0.33390811D-01  0.25987115D-01 -0.36158550D-01
 -0.39449049D-01 -0.55418210D-01 -0.11660641D-01  0.21222732D-01  0.29813794D-01
  0.50240955D-02  0.31358772D-03  0.44052951D-03 -0.48519037D-03 -0.47882381D-01
 -0.67265395D-01 -0.13075630D-01  0.91435540D-01  0.12844908D+00  0.26351357D-01
MO   13     MO 0.0        OCC NO =    2.0000000  ORB. ENERGY =   -0.723584
  0.37895437D-02  0.53168865D-02  0.32619825D-02  0.12035196D-02 -0.11476044D-02
  0.28585053D+00  0.14811541D+00  0.11430181D+00  0.59226264D-01  0.19286683D+00
  0.99935269D-01 -0.14509726D-02  0.20572690D-01  0.11203138D-01  0.13201843D-01
 -0.28068892D-01 -0.39381817D-01 -0.24161282D-01 -0.23446726D-01  0.22357396D-01
 -0.48895114D+00 -0.25335338D+00 -0.14401420D+00 -0.74621942D-01 -0.11031629D+00
 -0.57161143D-01 -0.38484635D-02 -0.10917667D-01 -0.18474281D-01  0.97693987D-02
  0.17984914D+00  0.25771218D+00  0.16391223D+00  0.67355752D-01 -0.63764176D-01
  0.11371126D+01  0.57420335D+00 -0.38348990D+00 -0.19364942D+00  0.87722590D+00
  0.44296938D+00 -0.75638848D-01  0.12759997D+00 -0.36526363D-01  0.94926850D-01
  0.32527248D-01  0.46289699D-01  0.29172524D-01  0.62288719D-02 -0.57615971D-02
  0.31462112D+00  0.16318514D+00  0.28166439D-01  0.14609142D-01  0.18458354D+00
  0.95738303D-01 -0.25784246D-01  0.29252233D-01 -0.59294161D-02  0.22322266D-01
 -0.24180266D-01 -0.33968551D-01 -0.99779434D-02  0.38661330D-01  0.54311618D-01
  0.10361272D-01  0.27275103D-01  0.38316193D-01  0.12307819D-01  0.43471621D-01
  0.61069138D-01  0.18598144D-01 -0.27849519D-01 -0.39123135D-01 -0.14139983D-01
MO   14     MO 0.0        OCC NO =    2.0000000  ORB. ENERGY =   -0.683367
  0.73266915D-02  0.10279651D-01  0.63067064D-02  0.34502379D-02 -0.32899406D-02
 -0.10874782D+00 -0.56348429D-01 -0.65890471D-02 -0.34141599D-02  0.42722629D+00
  0.22137023D+00 -0.39063250D-02 -0.11220762D-01 -0.46343926D-03  0.41690330D-01
 -0.32000012D-02 -0.44897340D-02 -0.27545131D-02 -0.13147828D-02  0.12536983D-02
  0.15332201D+00  0.79444847D-01 -0.51221558D-01 -0.26540801D-01 -0.28360895D+00
 -0.14695392D+00  0.24080401D-02  0.19258053D-01 -0.10904323D-01 -0.33368687D-01
 -0.76919873D-02 -0.11022120D-01 -0.70103797D-02 -0.27449534D-02  0.25985856D-02
  0.38616530D+00  0.19500040D+00 -0.29903361D+00 -0.15100185D+00 -0.83240100D+00
 -0.42033432D+00  0.44611828D-02  0.42144969D-01 -0.34318440D-01 -0.90850215D-01
  0.15514254D-02  0.22078417D-02  0.13914179D-02 -0.19297850D-02  0.17850172D-02
  0.18889064D+00  0.97972276D-01 -0.35416360D+00 -0.18369472D+00 -0.52124139D+00
 -0.27035328D+00 -0.29314617D-02  0.22799095D-01 -0.43761478D-01 -0.61802322D-01
  0.95238078D-02  0.13379090D-01  0.23636680D-02 -0.36849258D-02 -0.51766011D-02
 -0.20233874D-02  0.68166061D-01  0.95760003D-01  0.26483608D-01 -0.23589280D-01
 -0.33138332D-01 -0.85964517D-02 -0.53294606D-01 -0.74868514D-01 -0.18712111D-01
MO   15     MO 0.0        OCC NO =    2.0000000  ORB. ENERGY =   -0.573118
  0.57600384D-01  0.80815721D-01  0.49581549D-01  0.96328904D-02 -0.91853484D-02
  0.23879949D+00  0.12373559D+00  0.25062538D+00  0.12986326D+00  0.60818708D-01
  0.31513630D-01 -0.54042027D-01  0.24837063D-01  0.30575886D-01  0.77041474D-02
  0.36133156D-01  0.50696313D-01  0.31102880D-01  0.99608518D-02 -0.94980728D-02
 -0.11658008D+00 -0.60406769D-01 -0.22348505D+00 -0.11580031D+00  0.39830612D-01
  0.20638504D-01 -0.28841838D-01 -0.80500251D-02  0.25445455D-01 -0.12582909D-01
 -0.83544549D-02 -0.11971393D-01 -0.76141443D-02 -0.49545426D-02  0.46903541D-02
  0.27769240D+00  0.14022526D+00  0.18665407D+01  0.94253985D+00 -0.39244798D+00
 -0.19817294D+00  0.32908297D-02  0.33325435D-01  0.21822453D+00 -0.42508515D-01
 -0.93386285D-01 -0.13289852D+00 -0.83754813D-01 -0.14955479D-01  0.13833556D-01
 -0.11081356D+00 -0.57475886D-01  0.21774494D+00  0.11293819D+00 -0.31645798D+00
 -0.16413787D+00  0.81891621D-01 -0.19334334D-01  0.40734017D-01 -0.50430892D-01
 -0.10810121D-01 -0.15186109D-01 -0.90259166D-02 -0.13088543D-01 -0.18386847D-01
 -0.10195217D-02  0.15459359D-01  0.21717380D-01  0.11138717D-01  0.23690507D-01
  0.33280535D-01  0.18981248D-01 -0.97230703D-03 -0.13659015D-02  0.88330849D-02
MO   16     MO 0.0        OCC NO =    2.0000000  ORB. ENERGY =   -0.556696
  0.10237164D-01  0.14363165D-01  0.88119978D-02  0.30173906D-02 -0.28772033D-02
  0.33641632D-01  0.17431642D-01  0.54195490D-01  0.28081764D-01  0.13845738D-01
  0.71742642D-02 -0.69658363D-02  0.86423608D-02  0.34637132D-02  0.71994152D-02
  0.47599436D-02  0.66783977D-02  0.40972882D-02 -0.88410769D-03  0.84303223D-03
  0.63264907D-02  0.32781145D-02 -0.66213905D-01 -0.34309188D-01 -0.50820190D-01
 -0.26332829D-01 -0.70729203D-02  0.55000245D-02 -0.10716555D-02 -0.16229350D-01
 -0.57053295D-02 -0.81753680D-02 -0.51997650D-02 -0.27891690D-02  0.26404436D-02
  0.67567352D+00  0.34119225D+00 -0.24899328D+00 -0.12573317D+00 -0.12428962D+01
 -0.62762049D+00  0.29141278D-02  0.83913467D-01 -0.33209687D-01 -0.15346013D+00
 -0.80965501D-03 -0.11522243D-02 -0.72615057D-03  0.57276402D-02 -0.52979666D-02
 -0.36828762D+00 -0.19102045D+00  0.45308607D+00  0.23500303D+00  0.82562699D+00
  0.42822955D+00  0.92735206D-02 -0.57438580D-01  0.66949540D-01  0.12127368D+00
 -0.23218331D-02 -0.32617221D-02 -0.18902899D-02 -0.15797022D-02 -0.22191731D-02
  0.10504611D-02  0.45370957D-02  0.63737334D-02  0.34278936D-02  0.10964168D-02
  0.15402514D-02 -0.66755968D-02  0.81751596D-03  0.11484503D-02  0.75771575D-02
END DATA
 TOTAL ENERGY =    -8913.318238394233 THE VIRIAL(-V/T)=  43.97785305
